<?xml version="1.0"?>
<VTKFile type="UnstructuredGrid"  version="0.1"  >
<UnstructuredGrid>
<Piece  NumberOfPoints="3311" NumberOfCells="6266">
<Points>
<DataArray  type="Float64"  NumberOfComponents="3"  format="ascii">0 8 0  0 0 0  8 0 0  8 8 0  5.996053456856544 4.125581039058627 0  6 4 0  5.996053456856544 3.874418960941374 0  5.984229402628955 3.749333532871391 0  5.964574501457378 3.625237370828551 0  5.937166322257262 3.502620225670289 0  5.902113032590307 3.381966011250105 0  5.859552971776503 3.263750894630644 0  5.809654104932038 3.148441416869854 0  5.752613360087726 3.036492651796568 0  5.68865585100403 2.928346410042006 0  5.618033988749895 2.824429495415053 0  5.541026485551579 2.725152020502621 0  5.457937254842823 2.630905788142622 0  5.369094211857376 2.542062745157176 0  5.274847979497379 2.458973514448421 0  5.175570504584946 2.381966011250105 0  5.071653589957993 2.31134414899597 0  4.963507348203431 2.247386639912273 0  4.851558583130144 2.19034589506796 0  4.736249105369355 2.140447028223497 0  4.618033988749895 2.097886967409693 0  4.49737977432971 2.062833677742738 0  4.374762629171449 2.035425498542622 0  4.250666467128609 2.015770597371044 0  4.125581039058626 2.003946543143457 0  4 2 0  3.874418960941374 2.003946543143457 0  3.749333532871391 2.015770597371044 0  3.625237370828551 2.035425498542622 0  3.502620225670291 2.062833677742738 0  3.381966011250105 2.097886967409693 0  3.263750894630644 2.140447028223497 0  3.148441416869856 2.19034589506796 0  3.03649265179657 2.247386639912273 0  2.928346410042007 2.311344148995969 0  2.824429495415053 2.381966011250105 0  2.725152020502621 2.458973514448421 0  2.630905788142623 2.542062745157177 0  2.542062745157176 2.630905788142623 0  2.458973514448421 2.725152020502621 0  2.381966011250104 2.824429495415055 0  2.311344148995969 2.928346410042007 0  2.247386639912273 3.036492651796569 0  2.190345895067961 3.148441416869856 0  2.140447028223497 3.263750894630644 0  2.097886967409693 3.381966011250106 0  2.062833677742738 3.502620225670291 0  2.035425498542623 3.62523737082855 0  2.015770597371044 3.749333532871391 0  2.003946543143457 3.874418960941374 0  2 4 0  2.003946543143457 4.125581039058627 0  2.015770597371044 4.250666467128609 0  2.035425498542622 4.374762629171449 0  2.062833677742738 4.49737977432971 0  2.097886967409693 4.618033988749895 0  2.140447028223497 4.736249105369357 0  2.190345895067961 4.851558583130146 0  2.247386639912273 4.96350734820343 0  2.31134414899597 5.071653589957994 0  2.381966011250105 5.175570504584947 0  2.458973514448422 5.274847979497379 0  2.542062745157177 5.369094211857377 0  2.630905788142623 5.457937254842823 0  2.725152020502621 5.541026485551578 0  2.824429495415054 5.618033988749895 0  2.928346410042006 5.68865585100403 0  3.036492651796569 5.752613360087727 0  3.148441416869855 5.809654104932039 0  3.263750894630645 5.859552971776503 0  3.381966011250106 5.902113032590307 0  3.50262022567029 5.937166322257262 0  3.625237370828551 5.964574501457378 0  3.749333532871391 5.984229402628956 0  3.874418960941373 5.996053456856544 0  4 6 0  4.125581039058627 5.996053456856544 0  4.250666467128609 5.984229402628955 0  4.37476262917145 5.964574501457378 0  4.497379774329709 5.937166322257262 0  4.618033988749895 5.902113032590307 0  4.736249105369356 5.859552971776503 0  4.851558583130146 5.809654104932039 0  4.96350734820343 5.752613360087727 0  5.071653589957993 5.688655851004031 0  5.175570504584947 5.618033988749895 0  5.274847979497379 5.541026485551578 0  5.369094211857377 5.457937254842824 0  5.457937254842824 5.369094211857377 0  5.541026485551578 5.274847979497379 0  5.618033988749895 5.175570504584947 0  5.688655851004031 5.071653589957993 0  5.752613360087727 4.96350734820343 0  5.809654104932039 4.851558583130146 0  5.859552971776503 4.736249105369356 0  5.902113032590307 4.618033988749895 0  5.937166322257262 4.497379774329709 0  5.964574501457378 4.37476262917145 0  5.984229402628956 4.250666467128609 0  4 0 0  4 8 0  0 4 0  8 4 0  0 2 0  2 8 0  6 0 0  2 0 0  6 8 0  0 6 0  8 6 0  8 2 0  6.521298246749463 6.521298246749463 0  1 0 0  0 1 0  1.483805613147755 1.483805613147755 0  1.478701753250537 6.521298246749463 0  6.521298246749463 1.478701753250537 0  3 8 0  0 3 0  8 3 0  0 5 0  5 8 0  5 0 0  3 0 0  8 5 0  6.873734575860524 2.615431780543919 0  1.116982513655503 5.247593072616309 0  6.883017486344498 5.247593072616301 0  5.247593072616301 6.883017486344497 0  1.126098722170601 2.617891572298291 0  2.615431780543918 6.873734575860524 0  2.752406927383699 1.116982513655503 0  5.384568219456082 1.126265424139476 0  8 1 0  1 8 0  0 7 0  7 0 0  8 7 0  7 8 0  7.020499434641315 3.646406833984896 0  0.9797566053390774 3.648465816465237 0  3.715288427949091 7.011933824133993 0  4.353593166015106 0.9795005653586846 0  0.6967635209176272 4.5 0  3.5 0.6967635209176218 0  7.275042869145442 4.47475797999556 0  4.511587833362441 7.305805066533029 0  6.221909358080951 5.748059996166043 0  2.210760254282484 6.169547847869656 0  5.847454471986239 1.9044742386454 0  2.256260253799227 1.778178383200799 0  1.980629682828464 0.8249524138953971 0  0.6577483392967642 1.5 0  6.111193299431891 0.7920397023581334 0  0.6549706477735622 6.5 0  6.5 7.345029352226438 0  1.5 7.345029352226438 0  7.175403142852891 6.018842476908514 0  7.207960297641867 1.88880670056811 0  1.20233119856484 0.7548054172032042 0  7.138369340064689 0.8616306599353107 0  7.199038705435568 6.950962679584875 0  0.7268524757237351 7.273147524276265 0  5.787512723837678 6.360832417372146 0  1.584163534320421 5.803133310871846 0  0 0.5 0  0.5 0 0  1.813082410952285 2.362102895128433 0  4.585782825748341 6.620641716166908 0  3.414352878528616 1.379965389869018 0  1.37996538986902 4.585647121471382 0  5.5 8 0  5.795705687727962 7.325709583536691 0  0 5.5 0  0.6742904164633071 5.795705687727965 0  6.608410641840795 4.622450854667636 0  8 7.5 0  2.5 0 0  8 5.5 0  0.6430017150697597 2.16323374265656 0  8 2.5 0  5.5 0 0  2.5 8 0  2.162575541096604 7.357557400929156 0  6.209066202375347 2.498720159134196 0  8 6.5 0  3.213766170612044 6.557595245863999 0  4.810864017456047 1.461836067072289 0  6.474921798096663 3.108973325505615 0  1.461596867478842 3.191209948990856 0  0.6057536094346159 0.6057536094346163 0  3.5 8 0  3.116533476945463 7.331420182036469 0  7.5 0 0  7.50138895891471 1.352981564798016 0  6.5 0 0  4.925848415861192 0.6541083366372827 0  6.636309068723879 2.066043736464307 0  7.345891663362717 3.074151584138809 0  2.034062939515405 6.739458287989336 0  0.6538386597513111 3.07650783347036 0  1.306229817586613 2.051251581737755 0  1.711425920865481 5.22190430062486 0  5.172422863235413 6.301009428280244 0  2.75 0.5305166887675732 0  7.469483311232427 5.25 0  0.5722092524055858 5.06190966273399 0  5.072435773461397 7.430123991012138 0  6.319527671469182 5.122233284663893 0  2.835488340834966 1.696071607164519 0  5.920435248419656 1.334295501631503 0  4.5 0 0  8 3.5 0  7.432272671858859 2.512886319125838 0  5.571830688303236 0.5764100372080221 0  0 3.5 0  5.289311353655532 1.776472779228421 0  8 0.5 0  7.5 8 0  1.5 0 0  7.25 7.504032729381043 0  6.06696156120921 6.840932928848806 0  1.126750463624113 6.102788617506953 0  4.079942410528958 1.456191250380107 0  6.543808749619893 3.920057589471043 0  1.456853858348016 3.920078412765323 0  2.719154100210118 6.345760317541158 0  6.75 0.4820732229428856 0  1.147555431445879 6.942001202471608 0  0 2.5 0  4.033254072103534 6.555375438181171 0  7.459092130175394 3.96491680499676 0  4.023910705003057 0.5449410641392927 0  0.46324372358657 3.75 0  4.000538644612607 7.464791837989975 0  0 7.5 0  0.5 8 0  6.641367242777847 0.9816996559636945 0  2.060098699240311 5.602794388158723 0  8 1.5 0  1.5 8 0  6.5 8 0  0 6.5 0  0 1.5 0  4.5 8 0  8 4.5 0  3.5 0 0  0 4.5 0  5.71241378857682 5.847235604203799 0  1.980356857777504 1.341494340873432 0  6.73841195435907 5.743461321139284 0  7.001901661066728 1.342234074252575 0  2.271256172523833 0.4319561292819105 0  7.568195995774798 5.728421007950713 0  1.079620717833623 4.213724869256849 0  3.785914285080838 1.07957548172746 0  1.75 0.4068334879001349 0  7.593198924126513 6.25 0  2.644210543189512 7.51442503308679 0  1.759107121904632 1.881466257766474 0  7.598221819062164 0.75 0  7.25 0.4017781809378356 0  7.016697196788522 6.489226510093869 0  0.8135924992537802 1.042303878660207 0  7.590765621254587 6.709933711568556 0  6.972320805074426 4.114496419277549 0  0.6689706016379435 2.619626936075973 0  4.490317171939625 0.4719794785870491 0  7.586130070956817 7.194177964358491 0  1.564887898956812 2.745941764426699 0  7.45216884474369 3.51322113522411 0  7.58575169794429 4.808833363985082 0  3.538045596929494 7.533919544016318 0  4.268777385438645 6.932912710296469 0  6.25 0.3687278481717181 0  6.915054373976157 3.207810438216838 0  7.002360785621788 4.82228450274451 0  0.3972487693887257 4.181902501602563 0  0.9482937176147312 4.850514130935556 0  3.25 0.3483817604588109 0  3.078724571458289 0.822405414577691 0  1.086245288390012 5.675597706514477 0  1.074212327675575 1.667136181084258 0  2.267204536760128 2.246625033644231 0  4.821181984497242 6.992731518467086 0  2.439850702774412 0.8250274309749102 0  7.174972522369596 5.560160665184872 0  5.904966268715267 5.477643303883068 0  6.207512920818998 6.198213208971735 0  2.504889937937569 1.447997919101883 0  0.3997445887406886 1.156770199073539 0  0.3288741696483821 1.75 0  1.637615877582278 1.083042277773219 0  2.524803464880197 5.901811913432696 0  5.794604146187496 2.343782137192302 0  6.836411413561036 7.606548808898578 0  1.826315648259891 7.614255845340183 0  1.090927571027496 7.551079899216545 0  6.140889361672077 7.589220379873516 0  1.066148535748459 6.537245249458406 0  0.410779620126483 6.140889361672079 0  0.4489201007834544 6.909072428972504 0  6.470724483843425 6.932131515022222 0  1.638960019540123 6.929295531772199 0  5.660873205465542 6.931985632892141 0  3.623652679878191 6.609113767281198 0  7.62
[...]
<PointData  Scalars="f_24"> 
<DataArray  type="Float64"  Name="f_24"  format="ascii">1.9684000000000000e+02  4.8400000000000016e+00  6.8840000000000003e+01  2.6083999999999997e+02  9.1853913787001488e+01  8.8840000000000003e+01  8.5826023912187395e+01  8.2823507365430501e+01  7.9843186967991244e+01  7.6894989273969600e+01  7.3988020553225184e+01  7.1130570735661848e+01  6.8330130885338050e+01  6.5593423343903453e+01  6.2926443482780101e+01  6.0334511822460655e+01  5.7822335118132628e+01  5.5394074876048265e+01  5.3053421656748483e+01  5.0803673441084044e+01  4.8647816284181886e+01  4.6588605461827520e+01  4.4628645323437993e+01  4.2770466105666962e+01  4.1016596030004415e+01  3.9369627105331581e+01  3.7832273180638850e+01  3.6407418941947540e+01  3.5098158718448452e+01  3.3907824153169891e+01  3.2839999999999996e+01  3.1898527528231863e+01  3.1087495244390720e+01  3.0411216875204353e+01  2.9874196791363495e+01  2.9481083285333263e+01  2.9236610344094736e+01  2.9145528775584662e+01  2.9212527752183099e+01  2.9442148022499623e+01  2.9838688210822745e+01  3.0406105769125979e+01  3.1147914267030483e+01  3.2067078798563116e+01  3.3165911349307372e+01  3.4445968002462351e+01  3.5907949866715633e+01  3.7551609582499857e+01  3.9375665206425460e+01  4.1377723187237798e+01  4.3554212031780288e+01  4.5900328117853427e+01  4.8409994944673187e+01  5.1075836923367227e+01  5.3889168602482712e+01  5.6840000000000003e+01  5.9917058477296798e+01  6.3107827345540450e+01  6.6398601144902742e+01  6.9774557285679492e+01  7.3219843491775237e+01  7.6717680244966900e+01  8.0250477196672435e+01  8.3799962296264525e+01  8.7347322184699351e+01  9.0873352222539779e+01  9.4358614365181580e+01  9.7783600967717234e+01  1.0112890249948599e+02  1.0437537707560175e+02  1.0750431967081772e+02  1.1049762887069305e+02  1.1333796903639399e+02  1.1600892581232253e+02  1.1849515298936687e+02  1.2078250884966802e+02  1.2285818025971206e+02  1.2471079294515850e+02  1.2633050657058060e+02  1.2770909345734594e+02  1.2884000000000000e+02  1.2971839008228397e+02  1.3034117004463832e+02  1.3070699501190168e+02  1.3081625664898741e+02  1.3067105266966632e+02  1.3027513867527657e+02  1.2963386314240486e+02  1.2875408660764887e+02  1.2764408631002098e+02  1.2631344774417686e+02  1.2477294474755982e+02  1.2303440988920404e+02  1.2111059704520241e+02  1.1901503813400683e+02  1.1676189604253810e+02  1.1436581580076378e+02  1.1184177605766816e+02  1.0920494287558506e+02  1.0647052779339091e+02  1.0365365201322015e+02  1.0076921844179567e+02  9.7831793168220813e+01  9.4855497787603724e+01  2.0840000000000003e+01  2.1284000000000000e+02  5.2840000000000003e+01  1.1684000000000000e+02  1.6840000000000003e+01  2.0084000000000000e+02  4.0840000000000003e+01  8.8400000000000016e+00  2.3284000000000000e+02  1.1284000000000000e+02  1.7684000000000000e+02  8.0840000000000003e+01  2.6090889796188849e-01  5.8400000000000016e+00  7.8400000000000016e+00  1.8741602429673508e-02  2.0029708595678566e-01  8.0156478645961468e-02  2.0584000000000000e+02  3.1840000000000003e+01  9.5840000000000003e+01  7.9840000000000003e+01  2.2184000000000000e+02  2.9840000000000003e+01  1.3840000000000002e+01  1.4384000000000000e+02  4.1408649032440814e-01  4.8945875149252649e-01  7.7773296748885279e-01  1.0639951414628848e+00  1.5751556588652840e-01  8.7037193667302026e-01  1.1419343667514413e-01  1.9411238016122617e-01  7.1840000000000003e+01  1.9784000000000000e+02  1.5184000000000000e+02  5.3840000000000003e+01  2.1584000000000000e+02  2.4584000000000000e+02  1.0791557813039230e+00  5.3537367375523937e-01  1.9096289817613195e+00  3.0411356328542755e-01  1.9897691068282062e+00  5.1933013526600358e-01  3.3345677952969752e+00  6.5922513754982583e+00  1.4751697754990929e+00  1.4450466284973036e+00  7.6726587911937383e-01  3.9290377436308871e-01  1.3500085232130349e-01  4.2770137219188137e-01  7.5376217350762786e-01  4.5845230112510498e+00  8.7390029106696208e+00  7.1024376151370605e+00  2.6488936592332450e+00  1.4358969104040569e+00  1.5368787812495080e-01  1.5009215574259773e+00  4.6018967385104030e+00  8.3748521673047662e+00  8.3557583948247860e-01  4.6443439689091148e-01  5.5900000000000016e+00  5.0900000000000016e+00  7.1396495710521868e-01  3.6147621422861094e+00  8.2423882556036454e-01  1.8915574853424812e+00  2.2709000000000000e+02  7.4103203020189232e+00  9.5590000000000003e+01  3.4281426564496780e+00  2.8652727188987956e+00  2.3759000000000000e+02  1.1090000000000002e+01  1.5959000000000000e+02  7.2373394472327346e-01  8.7590000000000003e+01  3.5090000000000003e+01  2.0309000000000000e+02  7.6450495823241411e+00  1.7804645040958089e+00  1.9559000000000000e+02  3.5923507098210199e+00  1.2203999726583412e+00  2.5794974082094235e+00  1.3553366316441624e+00  4.8448806244074449e-01  2.0909000000000000e+02  7.0035387495797821e+00  6.1090000000000003e+01  5.8824330031435164e+00  4.7090000000000003e+01  1.0293761093518203e+00  1.4929282284307777e-01  3.4950536507832068e+00  4.0139810556173450e-01  1.1930199586101418e+00  5.4134287666237346e-02  3.4476617177197615e+00  5.8175671020596162e+00  8.2569829342700696e-01  9.9190573179841657e+00  4.4279863253063425e+00  1.2442845971762070e+01  4.9220682679546872e+00  1.3575923026751460e+00  9.8518688659861020e-02  2.5090000000000003e+01  1.0559000000000000e+02  4.8645775821707264e+00  1.9187574368928351e+00  4.1590000000000003e+01  2.1866968219814882e+00  6.9590000000000003e+01  2.5309000000000003e+02  7.0900000000000016e+00  2.3190970198754176e+01  6.6960669055497724e-01  4.1671279751237805e-01  1.8700914054780631e+00  4.8060717232839831e+00  3.1776891465624093e+00  3.2376631418375310e+00  4.4210031381627708e+00  1.3187597805830111e+00  2.3590000000000003e+01  6.8160769160546160e+00  7.2388011606731562e+00  1.3368524557544279e+00  4.6083781624371492e+00  1.4045588399396514e+01  1.7359000000000000e+02  1.9709000000000000e+02  3.9526753882715177e-01  6.0663562206567052e+00  7.5590000000000003e+01  1.9909000000000000e+02  2.3909000000000000e+02  1.3159000000000000e+02  1.1590000000000002e+01  2.1709000000000000e+02  1.2959000000000000e+02  1.7090000000000003e+01  6.5590000000000003e+01  7.6779085289578024e+00  3.6067387826542452e-02  4.4108405044901233e-01  5.1215135273933110e-01  1.1141928576658280e+00  1.8492404532738494e+01  6.9672262314547440e-01  3.1020084797418485e-01  1.0241670609782958e+00  2.3824880130754874e+01  1.7519576091263094e+01  1.0801543474444818e-01  1.0020448696232119e+01  8.5666909331586751e+00  1.4050438485654817e+00  1.6373123803714668e-01  2.5549247053979222e+01  1.1738341079578911e+00  8.7890129503983572e-01  2.3307356221038966e+00  2.9794521669020355e+01  7.7213325342956196e-01  6.4278031288007753e+00  1.6997380520170335e+01  1.9689268719858759e+01  1.8118286483630235e+00  6.3988438988867946e+00  7.5471908859507542e-01  1.1513384101365101e+00  7.6053432353719490e+00  7.6019698031924565e-01  2.6327182948064385e+00  2.5622375200053943e-01  4.7555710960072084e-01  6.4374884812235897e-02  2.7026233889763223e+00  1.7330129926619109e+00  1.7229000714919093e-01  2.4957619008619809e+00  1.3390268086223486e+01  3.6241011357678976e-01  1.9635098824272074e-01  1.1873239899514185e+00  2.6228612742975339e+00  3.6285037030857982e-02  1.2473097667679413e+01  5.3597888094963588e+00  3.3068557890803739e+01  2.8471851653990139e+01  2.0781606733796981e+01  2.9125361221183624e+01  7.0098942193273917e-01  1.4818233276383850e+01  1.5645175501865227e+01  1.1413406169762144e+00  8.8466029444962913e-01  1.0979240803407497e+00  4.3937176379609744e+00  1.1950872763755626e+01  2.5191938824018689e-01  3.5871677984454431e-01  8.1346685890532342e+00  2.4455240481680235e-01  6.3126936303320242e+00  1.1820995170702107e+00  3.8698167183827664e+01  3.7360254203707094e-01  4.2988169583085623e-01  3.7853220596532310e-02  1.4471101240704856e-01  4.8797597252164424e+00  1.4192864656413359e+01  2.3360798666570803e-01  3.3950999897139861e-01  8.9098510810064946e-01  1.1337225726100741e-01  2.7962931122554515e+00  6.4040169394407587e-01  1.5837196360881622e+00  7.7272326109611296e+00  1.1051320596097254e+00  2.9735390826385083e-01  6.0156287933644581e+00  4.3544675807423516e+00  1.3114613867191158e+01  3.8465370762996017e+01  3.3368251403210671e+01  1.9654530086314971e+01  6.3178581583963780e+00  1.7445772769556502e+01  4.3933995872318103e+00  1.0281382230679164e+00  2.0789585800355763e+01  5.5767824948602268e+01  9.4455363274299364e-01  1.5524546894582283e+01  1.7967565925094359e-01  1.1147528264903913e+01  5.1637036721212027e+01  5.6997889373967830e+01  3.6203850705731426e+01  5.5365763320267789e+01  9.6830470334352425e-01  4.6620671977743919e+00  1.6037756124840080e+01  5.6599939381126818e+00  1.7998053795261257e+00  1.3648839879667618e+01  1.1787615963138349e+00  8.0557457361858695e+00  5.7412647505506842e-01  1.0958712597693692e+00  1.7618467394953899e-01  4.8441230982861336e+00  3.8934191354421053e+01  1.4641736345453344e+00  1.4795115021591778e+00  1.7551477673204051e+01  1.5766264582305658e+01  3.9001587289858475e+00  3.6476906249965082e+00  7.8105340031616883e+00  8.5227951277478198e+00  1.3061895530661685e+00  9.8968048817626624e+00  2.3267435896664974e+00  5.2990065499722165e+00  2.8424920574590594e+01  2.2938377921522171e-01  2.1554295540995971e+00  5.7088350280219892e+01  1.5163432477618157e+00  1.5410413132555754e+00  1.4124133053924673e+01  4.8748932283731294e+00  4.3123260753037345e+00  1.8657069754939020e+00  2.9144417550591259e+00  5.6191195210996980e+00  1.5575069323641479e+00  5.9027718538595050e-02  2.3028899694070076e-01  2.2614156575932153e+01  2.7975261825199866e+00  1.8766821446923720e-01  1.8792719208614631e+01  1.3260498710740463e+00  1.1258958139853881e+00  5.8348602339185804e+00  6.0457669363327193e+00  5.8575609431760807e+00  1.3411983643439329e+00  1.8518327663878413e+00  1.1931988183506714e+00  3.5406449993211142e-01  8.6358642738291869e-01  1.4368183295002512e-01  3.2642318504427470e-01  5.6713382612720253e-01  3.1945119655667154e-01  9.0886264930290239e-01  4.4899843315761212e-01  5.5221790353639366e-01  2.1951313723112097e+01  3.3728198287252165e-01  5.4092111239858076e-01  6.3197125746196681e-01  8.4569816222210792e-01  2.8379204555232129e-01  2.1090250000000000e+02  4.4062980979433448e+01  3.6329548316416584e+01  2.4573012018648619e+01  1.5033017459456657e+00  6.5221595280563460e-01  3.9894999441308300e+01  1.0525385642618946e+01  3.4103848928841058e+00  9.8001188153584551e-02  3.0321738043035222e+00  1.3954887231276517e+01  3.8011419405535030e+00  4.1270841658138373e+00  9.5850158976994768e-02  5.4330033621656670e-01  7.2256962333047783e+00  2.2121798465113521e+01  3.1590307992965377e-01  2.1602489197750479e+01  1.5057433395367610e+01  4.7023192502644351e+00  1.8204468191138508e+00  4.6957298899992530e+00  1.7603768243331588e+00  1.6746184883193118e+00  1.4038674223112086e+01  1.4152750000000000e+02  1.7072373967245014e+00  1.4407238654633978e-01  1.4791056479233093e+01  3.7189917986700904e-01  2.6785815036837635e-01  1.8204936007058181e+00  2.8781025175167438e+00  1.8184401254252385e+00  1.4626509877164848e-01  3.5033479216371427e-02  4.3544345437806463e+01  1.9404775893799332e+01  2.0402048104806173e+01  6.2789320478279258e+00  2.9384530270537050e+00  3.3785862047660636e+01  3.3723014227064553e+01  2.4551853729114632e+00  2.0321357938953452e-01  2.3295277227206626e+00  5.4596205196960561e+00  4.3680203844209814e-01  3.6751832430272452e-01  7.1894760258957273e+00  1.9231779974963587e+01  4.9351904006655051e-01  3.6854017598137112e-01  2.0166631254777241e+00  9.5961985292010693e-02  9.9259327576249703e+00  4.2274824247913778e-01  3.4624346056482387e+00  2.1946349415490746e-01  2.0022483491883233e-01  2.9545723240503872e+00  5.3984083749365240e+01  9.1823056827874563e+00  6.1858586430328744e-01  8.2669899469339825e+00  1.4013124497398671e-01  9.8736243927204659e-01  3.0732513454389676e+00  2.0465051392275008e+01  2.8024203305079127e+00  2.4902750000000003e+02  1.2202750000000000e+02  2.3590250000000000e+02  7.1234450601975274e-01  4.7131279431772626e+00  6.2401330430275992e-01  4.2739705125005162e-01  2.5690249999999997e+02  1.3500075582816182e+01  4.4804669255829994e+00  3.8389739083467483e-01  1.9841059431499759e+00  3.8661489397456034e-01  2.0270174277461326e+00  1.0260771648231147e+01  7.2226446654960412e+01  6.3308197913345950e+01  2.6998761761902901e-01  1.9007847210327387e+01  5.9661171304461060e+00  7.1534079018435257e+00  1.1953018051424356e+00  1.3554062350452023e+00  1.1705815254357690e+01  3.5200710341715356e+00  1.6454152629401533e-01  1.7987885302018447e+00  1.8519637580050909e+00  1.0641804076943560e+00  5.3345018645189768e-01  9.8775722459840254e-01  2.1313934475575416e-01  2.5264090286131774e-01  6.0671547220204694e-02  3.0086356550834598e+01  1.0410526043701731e+00  2.0806291707485955e-01  1.1117079106870895e+01  5.0402500000000003e+01  1.1865561985987144e+01  3.0139690380514672e+00  9.8960965029559611e-01  5.6256785432461798e-01  2.9435599869707215e+01  5.4726102445611504e+00  3.0363530098171196e+00  7.6194405560720728e+00  2.7344485360173461e+01  1.2402500000000002e+01  2.1622172159135832e+01  1.9499767556962371e+00  8.8484957665410235e-01  1.7211217113882018e+00  7.3527500000000003e+01  8.9989142913373643e-01  3.1246242162839706e+00  8.9541715442626096e-02  6.7519717870572125e+00  2.0440250000000000e+02  2.7085939702500330e+01  3.7196498868310921e+00  3.9691523657145553e+00  1.9856863671971523e+00  8.0187005160867308e-01  2.2467815221229500e+01  9.5275000000000016e+00  1.2225060320276937e+00  1.0401645801997796e+01  4.7027500000000003e+01  1.3135749068528543e+01  1.2302750000000000e+02  1.3234113479946890e+00  1.4503184148737843e+01  1.9840250000000000e+02  3.8706982618121543e+01  1.6802750000000000e+02  1.0464287592011193e+01  5.7836825431800210e-01  2.2350494984391136e+00  7.9025000000000016e+00  3.0147759650866524e-01  7.8142574242133929e+00  1.8514592818727102e+01  1.8000185951914487e+00  2.2919682226438134e+00  2.4240250000000000e+02  3.4448761608148772e+01  4.7623149237105429e-02  2.1624620392954610e-02  5.9323629031724734e-01  5.8713630731555799e-01  7.4558260780019348e-01  3.8017465337397097e-02  2.2652750000000000e+02  5.0485391299845022e+00  3.0023911836624687e-02  6.4902500000000003e+01  6.9027500000000003e+01  5.1437831827569003e+00  3.0165624242551731e-01  2.8406254155522497e+01  6.8952493871187640e-02  1.4095843996070764e-01  1.5152750000000000e+02  9.9025000000000016e+00  1.1428184936404104e+01  2.3577552759027522e+00  5.9027500000000003e+01  4.5902289250716372e-01  8.9711802470421720e-01  4.3385336713378191e+00  5.9225804078074134e+01  1.0558086814336702e+01  7.6006961066336975e-01  1.9990250000000000e+02  3.1241138350072197e+00  7.3707637222887197e+00  6.7267517186536152e-01  1.5173784025983803e+00  2.0349439009060526e+00  6.6039829981533273e+00  2.0552750000000000e+02  5.3722223919171348e+01  1.4626481304401747e+01  5.4165129944701675e+01  1.8657779852838821e+01  6.5282719074131847e+00  4.3025911985287788e+00  1.3652750000000000e+02  1.0402750000000000e+02  2.0740250000000000e+02  1.1102750000000000e+02  3.7902500000000003e+01  4.9025000000000016e+00  5.0275000000000016e+00  6.5275000000000016e+00  2.0190250000000000e+02  2.7402500000000003e+01  2.1490250000000000e+02  1.8502750000000000e+02  5.4025000000000016e+00  1.9690250000000000e+02  2.2990250000000000e+02  9.1527500000000003e+01  1.0052750000000000e+02  1.8902500000000003e+01  1.6252750000000000e+02  1.9740250000000000e+02  8.4027500000000003e+01  2.0027500000000003e+01  2.7527500000000003e+01  3.6527500000000003e+01  7.2527500000000003e+01  2.1940250000000000e+02  6.4025000000000016e+00  3.2402500000000003e+01  7.8027500000000003e+01  1.4027500000000002e+01  1.5402500000000002e+01  4.3902500000000003e+01  5.7402500000000003e+01  7.0527500000000003e+01  1.8602750000000000e+02  2.2902500000000003e+01  8.7527500000000003e+01  2.2440250000000000e+02  2.4940250000000000e+02  1.3194809102069041e+00  1.8461167769410528e-01  4.5764440810683427e+00  3.9444995891396073e-01  3.5912528011666156e+00  2.8833220503142742e+00  5.5250650534388879e-01  8.1371707774026689e+01  8.7525438334493233e-01  2.8012384737125982e+00  1.5061444671026807e+00  1.8319067852396071e+00  5.7286480853024602e-01  1.9864752647420072e+00  2.7654400719860995e+01  6.7583677817624177e-01  9.8007471808551845e+00  5.0465180401154219e+00  2.2129167717249782e+01  8.7276194639300524e+00  1.3464443471796734e+00  2.7402246015533438e-01  1.1467960119488771e+00  3.0916304128591268e+00  5.3674904127832690e+01  3.7127565868201023e-01  3.0027902888559460e-01  3.9255743962954766e+00  8.2317582057054373e-01  1.2676471401379690e+00  4.6934057128296730e-01  2.6997675112675905e+00  4.9265566888121924e+01  1.4558318241534534e+00  9.9161479962275330e+00  5.8425120684289966e-01  1.0237909038221249e+00  6.9892868229015320e+01  3.6061412778151947e+01  1.7385094868526143e+00  3.2020619445885518e-01  9.9794443419257098e-02  9.2705225288707405e-01  7.7924594975185724e-02  2.3046077367920372e+01  2.3021273934230390e+01  6.8727203300138598e+01  1.0040666195258138e+01  7.4590832909957419e+00  1.8475296490998105e+00  7.8980618054119880e+00  1.5718608955608437e+00  1.4099488588325231e+01  6.2137626164670161e+00  1.9075141469391497e+00  9.0050366228778833e-01  5.8611689404617739e-01  1.3463336921818932e+01  6.2373930611280841e+01  3.6640202988867525e+00  1.9650144291447182e+00  1.7077749464203058e+00  2.0329579407213068e+01  6.8920545575420145e-01  9.2431320915261087e-02  1.8785981246878936e+00  9.1836398960435091e+00  8.6546388820612687e+00  5.1860076178310743e-01  1.8246420301419457e+00  6.5452795790400806e+00  4.5600623947674798e+01  1.2944834705018051e+01  6.9526666822120102e+00  1.7116320417635485e+01  2.4108140119275649e+01  1.6364886266514400e+00  2.9350422482188820e-01  5.6735753402724454e-01  3.9092461129542055e-01  2.6675204568244425e+01  1.8370074628973415e-01  2.5346497085308572e-01  2.2416686142049826e+01  6.5838800930373608e+01  5.0871797067508897e+00  1.3581362131531671e+00  1.2842694375288413e+00  9.0091020213882289e-01  2.6058321226038550e+00  1.9647736109798917e+00  2.0868535685348349e-01  5.4074495919786714e-01  7.2952573183812475e-01  2.2228709900034058e+00  2.6927646412574119e-01  5.5571581597486139e-02  2.7515953279170806e+00  1.0756222383935068e-01  2.3219877186916096e-01  1.5724338477185831e+00  9.4939581542810647e-01  2.2622123644216194e+00  1.3702482962574823e+01  9.3144835211489525e+00  1.9802239861048125e+00  1.0936631542151670e+02  1.7534243382914475e+01  2.2810141891052712e+01  4.6981638160749317e-01  3.4893420410779896e+01  2.8281222751704158e+00  3.7008782959417101e+00  1.1927375968059650e+00  3.9038498581794374e+00  1.2284498311129777e+00  9.8802161055388655e+00  2.3456224326116047e+01  2.6215402278536670e-01  1.2127389408574207e+00  1.7089445555880807e+00  1.4149868189379064e-01  1.2622708593107856e+00  7.8148056071438120e+01  5.5263673452677198e+00  5.9777318861066597e-01  8.3993203218718321e+01  9.4382888875050924e+01  2.6224042012604927e-02  3.5328271483929812e+00  3.7398282277478496e+00  2.4409736267934772e+01  1.0893441924158342e+01  1.0730445762936334e+00  2.4617515377526761e-01  4.6561675114968010e-01  3.5501716455736542e+01  4.6219068846916080e+00  5.4899667173562619e+01  6.0992475676569857e-01  3.6475082337761688e-01  5.3950689999805490e-01  1.7994787838419651e+01  2.1686830550724444e+01  7.1372469994479445e+01  6.3058636091917455e+00  4.6507995423993464e+01  9.2306475802241810e+00  9.5176233171677804e+00  3.4644075566196304e+00  3.7944829852371864e+00  5.2735943898456741e+00  1.1774968206580785e+00  1.7955491757967057e-01  3.5517144836540973e+00  5.7370469146712530e+01  1.2641248272805479e+01  1.2549781191486051e+00  1.8119454813713893e+00  8.3822592915531775e+00  1.4789400309549251e+01  4.2468298702225959e-01  3.4499811401880951e+00  1.2186365384210935e+01  9.8322986104833129e-02  3.5407367970790549e-01  3.8878651436772554e-01  2.5659807789097228e-02  5.1619105117559032e