<?xml version="1.0"?>
<VTKFile type="UnstructuredGrid"  version="0.1"  >
<UnstructuredGrid>
<Piece  NumberOfPoints="3311" NumberOfCells="6266">
<Points>
<DataArray  type="Float64"  NumberOfComponents="3"  format="ascii">0 8 0  0 0 0  8 0 0  8 8 0  5.996053456856544 4.125581039058627 0  6 4 0  5.996053456856544 3.874418960941374 0  5.984229402628955 3.749333532871391 0  5.964574501457378 3.625237370828551 0  5.937166322257262 3.502620225670289 0  5.902113032590307 3.381966011250105 0  5.859552971776503 3.263750894630644 0  5.809654104932038 3.148441416869854 0  5.752613360087726 3.036492651796568 0  5.68865585100403 2.928346410042006 0  5.618033988749895 2.824429495415053 0  5.541026485551579 2.725152020502621 0  5.457937254842823 2.630905788142622 0  5.369094211857376 2.542062745157176 0  5.274847979497379 2.458973514448421 0  5.175570504584946 2.381966011250105 0  5.071653589957993 2.31134414899597 0  4.963507348203431 2.247386639912273 0  4.851558583130144 2.19034589506796 0  4.736249105369355 2.140447028223497 0  4.618033988749895 2.097886967409693 0  4.49737977432971 2.062833677742738 0  4.374762629171449 2.035425498542622 0  4.250666467128609 2.015770597371044 0  4.125581039058626 2.003946543143457 0  4 2 0  3.874418960941374 2.003946543143457 0  3.749333532871391 2.015770597371044 0  3.625237370828551 2.035425498542622 0  3.502620225670291 2.062833677742738 0  3.381966011250105 2.097886967409693 0  3.263750894630644 2.140447028223497 0  3.148441416869856 2.19034589506796 0  3.03649265179657 2.247386639912273 0  2.928346410042007 2.311344148995969 0  2.824429495415053 2.381966011250105 0  2.725152020502621 2.458973514448421 0  2.630905788142623 2.542062745157177 0  2.542062745157176 2.630905788142623 0  2.458973514448421 2.725152020502621 0  2.381966011250104 2.824429495415055 0  2.311344148995969 2.928346410042007 0  2.247386639912273 3.036492651796569 0  2.190345895067961 3.148441416869856 0  2.140447028223497 3.263750894630644 0  2.097886967409693 3.381966011250106 0  2.062833677742738 3.502620225670291 0  2.035425498542623 3.62523737082855 0  2.015770597371044 3.749333532871391 0  2.003946543143457 3.874418960941374 0  2 4 0  2.003946543143457 4.125581039058627 0  2.015770597371044 4.250666467128609 0  2.035425498542622 4.374762629171449 0  2.062833677742738 4.49737977432971 0  2.097886967409693 4.618033988749895 0  2.140447028223497 4.736249105369357 0  2.190345895067961 4.851558583130146 0  2.247386639912273 4.96350734820343 0  2.31134414899597 5.071653589957994 0  2.381966011250105 5.175570504584947 0  2.458973514448422 5.274847979497379 0  2.542062745157177 5.369094211857377 0  2.630905788142623 5.457937254842823 0  2.725152020502621 5.541026485551578 0  2.824429495415054 5.618033988749895 0  2.928346410042006 5.68865585100403 0  3.036492651796569 5.752613360087727 0  3.148441416869855 5.809654104932039 0  3.263750894630645 5.859552971776503 0  3.381966011250106 5.902113032590307 0  3.50262022567029 5.937166322257262 0  3.625237370828551 5.964574501457378 0  3.749333532871391 5.984229402628956 0  3.874418960941373 5.996053456856544 0  4 6 0  4.125581039058627 5.996053456856544 0  4.250666467128609 5.984229402628955 0  4.37476262917145 5.964574501457378 0  4.497379774329709 5.937166322257262 0  4.618033988749895 5.902113032590307 0  4.736249105369356 5.859552971776503 0  4.851558583130146 5.809654104932039 0  4.96350734820343 5.752613360087727 0  5.071653589957993 5.688655851004031 0  5.175570504584947 5.618033988749895 0  5.274847979497379 5.541026485551578 0  5.369094211857377 5.457937254842824 0  5.457937254842824 5.369094211857377 0  5.541026485551578 5.274847979497379 0  5.618033988749895 5.175570504584947 0  5.688655851004031 5.071653589957993 0  5.752613360087727 4.96350734820343 0  5.809654104932039 4.851558583130146 0  5.859552971776503 4.736249105369356 0  5.902113032590307 4.618033988749895 0  5.937166322257262 4.497379774329709 0  5.964574501457378 4.37476262917145 0  5.984229402628956 4.250666467128609 0  4 0 0  4 8 0  0 4 0  8 4 0  0 2 0  2 8 0  6 0 0  2 0 0  6 8 0  0 6 0  8 6 0  8 2 0  6.521298246749463 6.521298246749463 0  1 0 0  0 1 0  1.483805613147755 1.483805613147755 0  1.478701753250537 6.521298246749463 0  6.521298246749463 1.478701753250537 0  3 8 0  0 3 0  8 3 0  0 5 0  5 8 0  5 0 0  3 0 0  8 5 0  6.873734575860524 2.615431780543919 0  1.116982513655503 5.247593072616309 0  6.883017486344498 5.247593072616301 0  5.247593072616301 6.883017486344497 0  1.126098722170601 2.617891572298291 0  2.615431780543918 6.873734575860524 0  2.752406927383699 1.116982513655503 0  5.384568219456082 1.126265424139476 0  8 1 0  1 8 0  0 7 0  7 0 0  8 7 0  7 8 0  7.020499434641315 3.646406833984896 0  0.9797566053390774 3.648465816465237 0  3.715288427949091 7.011933824133993 0  4.353593166015106 0.9795005653586846 0  0.6967635209176272 4.5 0  3.5 0.6967635209176218 0  7.275042869145442 4.47475797999556 0  4.511587833362441 7.305805066533029 0  6.221909358080951 5.748059996166043 0  2.210760254282484 6.169547847869656 0  5.847454471986239 1.9044742386454 0  2.256260253799227 1.778178383200799 0  1.980629682828464 0.8249524138953971 0  0.6577483392967642 1.5 0  6.111193299431891 0.7920397023581334 0  0.6549706477735622 6.5 0  6.5 7.345029352226438 0  1.5 7.345029352226438 0  7.175403142852891 6.018842476908514 0  7.207960297641867 1.88880670056811 0  1.20233119856484 0.7548054172032042 0  7.138369340064689 0.8616306599353107 0  7.199038705435568 6.950962679584875 0  0.7268524757237351 7.273147524276265 0  5.787512723837678 6.360832417372146 0  1.584163534320421 5.803133310871846 0  0 0.5 0  0.5 0 0  1.813082410952285 2.362102895128433 0  4.585782825748341 6.620641716166908 0  3.414352878528616 1.379965389869018 0  1.37996538986902 4.585647121471382 0  5.5 8 0  5.795705687727962 7.325709583536691 0  0 5.5 0  0.6742904164633071 5.795705687727965 0  6.608410641840795 4.622450854667636 0  8 7.5 0  2.5 0 0  8 5.5 0  0.6430017150697597 2.16323374265656 0  8 2.5 0  5.5 0 0  2.5 8 0  2.162575541096604 7.357557400929156 0  6.209066202375347 2.498720159134196 0  8 6.5 0  3.213766170612044 6.557595245863999 0  4.810864017456047 1.461836067072289 0  6.474921798096663 3.108973325505615 0  1.461596867478842 3.191209948990856 0  0.6057536094346159 0.6057536094346163 0  3.5 8 0  3.116533476945463 7.331420182036469 0  7.5 0 0  7.50138895891471 1.352981564798016 0  6.5 0 0  4.925848415861192 0.6541083366372827 0  6.636309068723879 2.066043736464307 0  7.345891663362717 3.074151584138809 0  2.034062939515405 6.739458287989336 0  0.6538386597513111 3.07650783347036 0  1.306229817586613 2.051251581737755 0  1.711425920865481 5.22190430062486 0  5.172422863235413 6.301009428280244 0  2.75 0.5305166887675732 0  7.469483311232427 5.25 0  0.5722092524055858 5.06190966273399 0  5.072435773461397 7.430123991012138 0  6.319527671469182 5.122233284663893 0  2.835488340834966 1.696071607164519 0  5.920435248419656 1.334295501631503 0  4.5 0 0  8 3.5 0  7.432272671858859 2.512886319125838 0  5.571830688303236 0.5764100372080221 0  0 3.5 0  5.289311353655532 1.776472779228421 0  8 0.5 0  7.5 8 0  1.5 0 0  7.25 7.504032729381043 0  6.06696156120921 6.840932928848806 0  1.126750463624113 6.102788617506953 0  4.079942410528958 1.456191250380107 0  6.543808749619893 3.920057589471043 0  1.456853858348016 3.920078412765323 0  2.719154100210118 6.345760317541158 0  6.75 0.4820732229428856 0  1.147555431445879 6.942001202471608 0  0 2.5 0  4.033254072103534 6.555375438181171 0  7.459092130175394 3.96491680499676 0  4.023910705003057 0.5449410641392927 0  0.46324372358657 3.75 0  4.000538644612607 7.464791837989975 0  0 7.5 0  0.5 8 0  6.641367242777847 0.9816996559636945 0  2.060098699240311 5.602794388158723 0  8 1.5 0  1.5 8 0  6.5 8 0  0 6.5 0  0 1.5 0  4.5 8 0  8 4.5 0  3.5 0 0  0 4.5 0  5.71241378857682 5.847235604203799 0  1.980356857777504 1.341494340873432 0  6.73841195435907 5.743461321139284 0  7.001901661066728 1.342234074252575 0  2.271256172523833 0.4319561292819105 0  7.568195995774798 5.728421007950713 0  1.079620717833623 4.213724869256849 0  3.785914285080838 1.07957548172746 0  1.75 0.4068334879001349 0  7.593198924126513 6.25 0  2.644210543189512 7.51442503308679 0  1.759107121904632 1.881466257766474 0  7.598221819062164 0.75 0  7.25 0.4017781809378356 0  7.016697196788522 6.489226510093869 0  0.8135924992537802 1.042303878660207 0  7.590765621254587 6.709933711568556 0  6.972320805074426 4.114496419277549 0  0.6689706016379435 2.619626936075973 0  4.490317171939625 0.4719794785870491 0  7.586130070956817 7.194177964358491 0  1.564887898956812 2.745941764426699 0  7.45216884474369 3.51322113522411 0  7.58575169794429 4.808833363985082 0  3.538045596929494 7.533919544016318 0  4.268777385438645 6.932912710296469 0  6.25 0.3687278481717181 0  6.915054373976157 3.207810438216838 0  7.002360785621788 4.82228450274451 0  0.3972487693887257 4.181902501602563 0  0.9482937176147312 4.850514130935556 0  3.25 0.3483817604588109 0  3.078724571458289 0.822405414577691 0  1.086245288390012 5.675597706514477 0  1.074212327675575 1.667136181084258 0  2.267204536760128 2.246625033644231 0  4.821181984497242 6.992731518467086 0  2.439850702774412 0.8250274309749102 0  7.174972522369596 5.560160665184872 0  5.904966268715267 5.477643303883068 0  6.207512920818998 6.198213208971735 0  2.504889937937569 1.447997919101883 0  0.3997445887406886 1.156770199073539 0  0.3288741696483821 1.75 0  1.637615877582278 1.083042277773219 0  2.524803464880197 5.901811913432696 0  5.794604146187496 2.343782137192302 0  6.836411413561036 7.606548808898578 0  1.826315648259891 7.614255845340183 0  1.090927571027496 7.551079899216545 0  6.140889361672077 7.589220379873516 0  1.066148535748459 6.537245249458406 0  0.410779620126483 6.140889361672079 0  0.4489201007834544 6.909072428972504 0  6.470724483843425 6.932131515022222 0  1.638960019540123 6.929295531772199 0  5.660873205465542 6.931985632892141 0  3.623652679878191 6.609113767281198 0  7.62
[...]
<PointData  Scalars="f_24"> 
<DataArray  type="Float64"  Name="f_24"  format="ascii">1.9645599999999999e+02  4.4560000000000013e+00  6.8456000000000003e+01  2.6045600000000002e+02  9.1469913787001488e+01  8.8456000000000003e+01  8.5442023912187395e+01  8.2439507365430501e+01  7.9459186967991243e+01  7.6510989273969599e+01  7.3604020553225183e+01  7.0746570735661848e+01  6.7946130885338050e+01  6.5209423343903453e+01  6.2542443482780094e+01  5.9950511822460655e+01  5.7438335118132628e+01  5.5010074876048265e+01  5.2669421656748483e+01  5.0419673441084043e+01  4.8263816284181885e+01  4.6204605461827519e+01  4.4244645323437993e+01  4.2386466105666962e+01  4.0632596030004414e+01  3.8985627105331581e+01  3.7448273180638850e+01  3.6023418941947540e+01  3.4714158718448452e+01  3.3523824153169890e+01  3.2455999999999996e+01  3.1514527528231866e+01  3.0703495244390716e+01  3.0027216875204353e+01  2.9490196791363495e+01  2.9097083285333262e+01  2.8852610344094735e+01  2.8761528775584662e+01  2.8828527752183099e+01  2.9058148022499623e+01  2.9454688210822745e+01  3.0022105769125979e+01  3.0763914267030483e+01  3.1683078798563113e+01  3.2781911349307371e+01  3.4061968002462351e+01  3.5523949866715633e+01  3.7167609582499857e+01  3.8991665206425459e+01  4.0993723187237798e+01  4.3170212031780288e+01  4.5516328117853426e+01  4.8025994944673187e+01  5.0691836923367227e+01  5.3505168602482712e+01  5.6456000000000003e+01  5.9533058477296798e+01  6.2723827345540450e+01  6.6014601144902741e+01  6.9390557285679492e+01  7.2835843491775236e+01  7.6333680244966899e+01  7.9866477196672435e+01  8.3415962296264524e+01  8.6963322184699351e+01  9.0489352222539779e+01  9.3974614365181580e+01  9.7399600967717234e+01  1.0074490249948599e+02  1.0399137707560175e+02  1.0712031967081772e+02  1.1011362887069305e+02  1.1295396903639399e+02  1.1562492581232253e+02  1.1811115298936687e+02  1.2039850884966802e+02  1.2247418025971209e+02  1.2432679294515847e+02  1.2594650657058061e+02  1.2732509345734596e+02  1.2845599999999999e+02  1.2933439008228396e+02  1.2995717004463830e+02  1.3032299501190167e+02  1.3043225664898742e+02  1.3028705266966631e+02  1.2989113867527655e+02  1.2924986314240485e+02  1.2837008660764886e+02  1.2726008631002098e+02  1.2592944774417687e+02  1.2438894474755980e+02  1.2265040988920404e+02  1.2072659704520241e+02  1.1863103813400683e+02  1.1637789604253810e+02  1.1398181580076378e+02  1.1145777605766816e+02  1.0882094287558506e+02  1.0608652779339091e+02  1.0326965201322015e+02  1.0038521844179567e+02  9.7447793168220812e+01  9.4471497787603724e+01  2.0456000000000003e+01  2.1245599999999999e+02  5.2456000000000003e+01  1.1645600000000000e+02  1.6456000000000003e+01  2.0045599999999999e+02  4.0456000000000003e+01  8.4560000000000013e+00  2.3245599999999999e+02  1.1245600000000000e+02  1.7645599999999999e+02  8.0456000000000003e+01  2.6040523120458625e-01  5.4560000000000013e+00  7.4560000000000013e+00  1.8249379492430030e-02  1.9979380306897868e-01  7.9647965308938987e-02  2.0545599999999999e+02  3.1456000000000007e+01  9.5456000000000003e+01  7.9456000000000003e+01  2.2145599999999999e+02  2.9456000000000003e+01  1.3456000000000001e+01  1.4345599999999999e+02  4.1214639372279449e-01  4.8722599391550675e-01  7.7549450169334000e-01  1.0617800107419142e+00  1.5556942932492809e-01  8.6841876347777125e-01  1.1197820397681406e-01  1.9212343432462123e-01  7.1456000000000003e+01  1.9745599999999999e+02  1.5145599999999999e+02  5.3456000000000003e+01  2.1545599999999999e+02  2.4545599999999999e+02  1.0750017585181335e+00  5.3107659489142811e-01  1.9054943601885301e+00  2.9997761092786435e-01  1.9781879637921964e+00  5.0798980729985976e-01  3.3245766913297876e+00  6.5804757327628032e+00  1.4703753067025276e+00  1.4397509722272264e+00  7.6162178390475466e-01  3.8796515895391198e-01  1.2927548541403835e-01  4.1392568241704530e-01  7.4693770249083713e-01  4.5712490140374067e+00  8.7249635528596272e+00  7.0887167399767330e+00  2.6431739722542158e+00  1.4289967392436018e+00  1.4469245778426301e-01  1.4918477962407479e+00  4.5938896122352642e+00  8.3569842424848346e+00  8.3308848218210962e-01  4.6250927383501278e-01  5.2060000000000013e+00  4.7060000000000013e+00  7.0602554045530885e-01  3.6043242796583179e+00  8.1371735271722168e-01  1.8809372809872811e+00  2.2670599999999999e+02  7.3979680370005276e+00  9.5206000000000003e+01  3.4157117149240421e+00  2.8543594494183733e+00  2.3720599999999999e+02  1.0706000000000001e+01  1.5920599999999999e+02  7.0928742574057846e-01  8.7206000000000003e+01  3.4706000000000003e+01  2.0270599999999999e+02  7.6304775477223163e+00  1.7694336659954863e+00  1.9520599999999999e+02  3.5811057153859651e+00  1.2085007506088641e+00  2.5659432358657450e+00  1.3435141679510219e+00  4.5281117344740679e-01  2.0870599999999999e+02  6.9904473497900153e+00  6.0706000000000003e+01  5.8520831229262589e+00  4.6706000000000003e+01  1.0159223057658868e+00  1.4847213914846147e-01  3.4812645306392871e+00  4.0050157913989848e-01  1.1793637646819168e+00  5.3306447699480078e-02  3.4316933745521045e+00  5.8002583033808719e+00  8.0038841061309740e-01  9.8939665190975141e+00  4.4072437480055147e+00  1.2421352481071795e+01  4.9048178439746701e+00  1.3399230996777107e+00  9.7676389972941188e-02  2.4706000000000003e+01  1.0520600000000000e+02  4.8433902811819518e+00  1.8982771502753950e+00  4.1206000000000003e+01  2.1682255137115183e+00  6.9206000000000003e+01  2.5270599999999999e+02  6.7060000000000013e+00  2.3154797819696050e+01  6.6844603931299351e-01  4.1534020917439091e-01  1.8486702816379841e+00  4.7850344770827489e+00  3.1558085980831221e+00  3.2267134461738194e+00  4.3875970306538896e+00  1.3159259681570521e+00  2.3206000000000003e+01  6.7958543944923706e+00  7.2148798473814235e+00  1.3126533969745033e+00  4.5709841472991846e+00  1.4020195496914100e+01  1.7320599999999999e+02  1.9670599999999999e+02  3.9233707148413915e-01  6.0416352539500418e+00  7.5206000000000003e+01  1.9870599999999999e+02  2.3870599999999999e+02  1.3120599999999999e+02  1.1206000000000001e+01  2.1670599999999999e+02  1.2920599999999999e+02  1.6706000000000003e+01  6.5206000000000003e+01  7.6538885467867912e+00  3.5320925880982214e-02  4.3990846709929815e-01  5.0940893181904101e-01  1.0717975607135646e+00  1.8449980016969235e+01  6.9226634085501937e-01  3.0587592285660919e-01  9.7478966531325817e-01  2.3775786425356038e+01  1.7486573581503738e+01  1.0670413930758257e-01  9.9651836522302748e+00  8.5106197838712738e+00  1.4023217464104398e+00  1.5586653673425918e-01  2.5501297404793725e+01  1.1695419994730032e+00  8.6593469630439823e-01  2.2950786797818639e+00  2.9743988819657975e+01  7.6446184222709457e-01  6.4045305225242277e+00  1.6950288375664982e+01  1.9653128569615422e+01  1.8075659055482411e+00  6.3430561574915210e+00  7.5140867623193752e-01  1.1478665704223796e+00  7.5547238708751214e+00  7.5629759423663745e-01  2.5673996360402036e+00  2.4985429116808533e-01  4.7371746657820923e-01  6.2604024267427658e-02  2.6700759195044981e+00  1.7295167003967500e+00  1.6644961200167543e-01  2.4898134130757463e+00  1.3346539305599393e+01  3.6132012904740424e-01  1.9368000319234521e-01  1.1368341728637053e+00  2.5518748456015272e+00  3.4624086354532180e-02  1.2427792748188157e+01  5.3229130486563090e+00  3.3016406561901611e+01  2.8417248755382044e+01  2.0741170532045672e+01  2.9077683017535389e+01  6.9906804452096805e-01  1.4770125829762364e+01  1.5604930453354310e+01  1.1394771909869204e+00  8.8292007114078741e-01  1.0959600908879255e+00  4.3804603951980541e+00  1.1892405007524106e+01  2.4908867948759003e-01  3.5536426614283900e-01  8.0953449386259724e+00  2.4373029026510920e-01  6.2379620517532350e+00  1.1120389527924606e+00  3.8630388565909819e+01  3.7278221209011220e-01  4.2701939304768372e-01  3.6069358544275613e-02  1.4350931475555601e-01  4.8719777543741536e+00  1.4117950760138624e+01  2.3242823150714978e-01  3.3609728421537444e-01  8.8692309947679093e-01  1.1255332488935833e-01  2.7606025376726313e+00  6.3837223650549224e-01  1.5801455347228393e+00  7.6462620359465427e+00  1.0971241962386127e+00  2.9485864541829165e-01  5.9324182224960023e+00  4.3085287177167224e+00  1.3054101433592299e+01  3.8389759795622183e+01  3.3291493401214588e+01  1.9594137168293962e+01  6.2693910322697439e+00  1.7344173278187512e+01  4.3045773424727081e+00  1.0252424366215491e+00  2.0709859220863404e+01  5.5680439359254493e+01  9.4140365024064332e-01  1.5460545149737651e+01  1.7769707573129584e-01  1.1102120943819079e+01  5.1550800939600684e+01  5.6881202679051263e+01  3.6142291701453836e+01  5.5266834727494526e+01  9.5794393917199072e-01  4.6541062674358722e+00  1.5985102217642304e+01  5.6154976208874334e+00  1.7922487593699197e+00  1.3594515319649693e+01  1.1767444237551616e+00  8.0094383649631968e+00  5.7155728430959052e-01  1.0915564937469779e+00  1.7554626824770300e-01  4.7519970282809849e+00  3.8860287957961674e+01  1.3614770510605754e+00  1.3971391374621924e+00  1.7499684443106499e+01  1.5719781884655385e+01  3.8525325758351618e+00  3.6005283155721202e+00  7.7628179004495257e+00  8.4790359567832976e+00  1.2996257061539092e+00  9.7966756068623990e+00  2.3192144479093875e+00  5.2448085103954449e+00  2.8326423036805075e+01  2.2597875907135714e-01  2.1492947368848534e+00  5.6982687412529820e+01  1.5039272048180430e+00  1.4284929810131994e+00  1.4071884333710354e+01  4.8600763271387510e+00  4.3052656044035373e+00  1.8480670141873081e+00  2.9070651619816039e+00  5.5422842624568869e+00  1.5542980188550908e+00  5.7555075429741552e-02  2.2654600918925374e-01  2.2532130749595343e+01  2.7861307774013797e+00  1.7799111053608438e-01  1.8734105075395128e+01  1.3213589457933979e+00  1.1219651849994137e+00  5.7800602306888047e+00  5.9902595441143127e+00  5.7585768013817162e+00  1.3370981284103696e+00  1.8482651992081591e+00  1.1908434208833236e+00  3.5202763343947102e-01  8.5880909568331898e-01  1.4117112727581785e-01  3.2545026876734706e-01  5.6196940255364791e-01  3.1636367713878205e-01  9.0165206908892193e-01  4.1996286440486191e-01  5.3833772639343047e-01  2.1884873081883786e+01  3.3310128158793612e-01  5.3321139583679011e-01  6.2460805304188916e-01  8.4215067214642192e-01  2.8308901349413546e-01  2.1051849999999999e+02  4.3992107064018782e+01  3.6259390671639295e+01  2.4500683383006987e+01  1.4962778021470255e+00  6.4846820851105214e-01  3.9820439124092729e+01  1.0459249552914290e+01  3.4038900637663980e+00  9.4376879418931636e-02  3.0034135760453813e+00  1.3880892303711905e+01  3.7883845163171541e+00  4.1159755254573422e+00  9.5252819446044801e-02  5.3688380394740620e-01  7.2114913002209455e+00  2.2055212406157914e+01  3.1227790825236379e-01  2.1505384788286626e+01  1.4991575484047587e+01  4.6935028236044030e+00  1.8135343661520480e+00  4.6864938983635653e+00  1.7509340340715560e+00  1.6661881668877450e+00  1.3964069646454673e+01  1.4114349999999999e+02  1.7018452309784524e+00  1.4083931062723609e-01  1.4740178115138407e+01  3.7011727480875095e-01  2.6725302141062052e-01  1.7588402254368796e+00  2.8725611729319929e+00  1.8105764922485192e+00  1.4458533366562562e-01  3.4480875960094172e-02  4.3465206095447876e+01  1.9329853319715067e+01  2.0332578616201818e+01  6.1968677189431602e+00  2.8556149978610637e+00  3.3703812276936517e+01  3.3634463139578472e+01  2.3724486924928425e+00  1.9727382556117337e-01  2.3235866332677975e+00  5.4493267541777861e+00  4.2856035291949340e-01  3.6147390558229409e-01  7.1102140578172159e+00  1.9150101235826995e+01  4.9234242860418254e-01  3.6360491597016004e-01  2.0113030155310567e+00  9.4717226391827461e-02  9.8433824604205729e+00  4.1756051040180386e-01  3.4443933581750690e+00  2.1777621844697279e-01  1.9838454709811815e-01  2.9493685598761576e+00  5.3891049120700352e+01  9.1662010462186618e+00  6.1422236811694364e-01  8.2182385289579827e+00  1.3881236679182454e-01  9.7955340446924422e-01  3.0384028115947075e+00  2.0376358978486731e+01  2.7907705171531418e+00  2.4864349999999999e+02  1.2164350000000000e+02  2.3551849999999999e+02  7.0317890258839977e-01  4.6952284859194693e+00  6.2093908690575861e-01  4.0469165811820967e-01  2.5651850000000002e+02  1.3435939985847398e+01  4.4674182409923588e+00  3.8265008401465883e-01  1.9800605230541806e+00  3.8592859951235148e-01  2.0236254197538557e+00  1.0243955149616099e+01  7.2115669754336309e+01  6.3209703120890033e+01  2.6866972590606475e-01  1.8921312544864826e+01  5.9550961577902335e+00  7.1396995416328464e+00  1.1901143547872883e+00  1.3497156325342878e+00  1.1621946733678582e+01  3.5040351625057418e+00  1.5462925286246332e-01  1.7952447783189740e+00  1.8406226958618308e+00  1.0513294024439919e+00  5.3231615862400328e-01  9.8429649462576330e-01  2.1234063976120737e-01  2.5189928392374322e-01  5.7440678208252223e-02  2.9996818409043279e+01  1.0362413830147235e+00  2.0754395962639444e-01  1.1027372125690256e+01  5.0018500000000003e+01  1.1780902533993931e+01  2.9932738751816128e+00  9.8270206507224889e-01  5.5918732812929195e-01  2.9340010918222085e+01  5.4554259005521981e+00  3.0257913207218490e+00  7.5767596312505932e+00  2.7257864059778594e+01  1.2018500000000001e+01  2.1576966909070133e+01  1.9431393149182989e+00  8.6126682134976273e-01  1.6916093539553025e+00  7.3143500000000003e+01  8.8517313777577822e-01  3.1177883596320775e+00  8.8217249658961536e-02  6.7397615744737189e+00  2.0401849999999999e+02  2.7002612805292344e+01  3.6992053994100766e+00  3.9453901401754439e+00  1.9727308927043410e+00  7.9144359725420876e-01  2.2401109295786501e+01  9.1435000000000013e+00  1.2123021255925961e+00  1.0307487069427061e+01  4.6643500000000003e+01  1.3038079226364232e+01  1.2264350000000000e+02  1.3197891950400631e+00  1.4478734476449301e+01  1.9801849999999999e+02  3.8622841708415478e+01  1.6764349999999999e+02  1.0441738813658546e+01  5.5357765309723661e-01  2.1376419678910152e+00  7.5185000000000013e+00  2.8985397863380924e-01  7.7226665993490178e+00  1.8420867959118425e+01  1.7590964324138623e+00  2.2848837904944501e+00  2.4201849999999999e+02  3.4348452478934490e+01  4.5942743062522440e-02  2.1014969238237469e-02  5.9134216828412434e-01  5.8548567449923283e-01  7.4391165820614524e-01  3.7453345970112094e-02  2.2614349999999999e+02  5.0245649637698282e+00  2.9002921272513145e-02  6.4518500000000003e+01  6.8643500000000003e+01  5.0994993950614393e+00  3.0041054455003557e-01  2.8302656421470921e+01  6.8429815981919176e-02  1.3994673420350265e-01  1.5114349999999999e+02  9.5185000000000013e+00  1.1321129555386674e+01  2.3499535284223296e+00  5.8643500000000003e+01  4.5517202324938971e-01  8.9435692979999493e-01  4.3243853706841557e+00  5.9114031627818683e+01  1.0538075420659645e+01  7.5598548330200388e-01  1.9951849999999999e+02  3.0845868355321233e+00  7.2788388064754965e+00  6.3656223993235161e-01  1.4187663124008631e+00  1.9896882799774152e+00  6.5319039033324779e+00  2.0514349999999999e+02  5.3626053134937308e+01  1.4600539112679609e+01  5.4061714851822288e+01  1.8624575768754283e+01  6.4228088375332941e+00  4.2509790500007671e+00  1.3614349999999999e+02  1.0364350000000000e+02  2.0701849999999999e+02  1.1064350000000000e+02  3.7518500000000003e+01  4.5185000000000013e+00  4.6435000000000013e+00  6.1435000000000013e+00  2.0151849999999999e+02  2.7018500000000003e+01  2.1451849999999999e+02  1.8464349999999999e+02  5.0185000000000013e+00  1.9651849999999999e+02  2.2951849999999999e+02  9.1143500000000003e+01  1.0014350000000000e+02  1.8518500000000003e+01  1.6214349999999999e+02  1.9701849999999999e+02  8.3643500000000003e+01  1.9643500000000003e+01  2.7143500000000003e+01  3.6143500000000003e+01  7.2143500000000003e+01  2.1901849999999999e+02  6.0185000000000013e+00  3.2018500000000003e+01  7.7643500000000003e+01  1.3643500000000001e+01  1.5018500000000001e+01  4.3518500000000003e+01  5.7018500000000003e+01  7.0143500000000003e+01  1.8564349999999999e+02  2.2518500000000003e+01  8.7143500000000003e+01  2.2401849999999999e+02  2.4901849999999999e+02  1.3103577518111840e+00  1.8360063673840551e-01  4.5617233538501445e+00  3.9019013723685225e-01  3.5845668211935107e+00  2.8774359844347313e+00  5.5148402053513046e-01  8.1237668961994729e+01  8.6880902742052002e-01  2.7932424053047686e+00  1.5016272320803152e+00  1.8266272151115364e+00  5.7000498235384489e-01  1.9832679355653999e+00  2.7556324593056811e+01  6.5267073953221177e-01  9.7772088138648883e+00  5.0350923699820544e+00  2.2038344121609942e+01  8.6247758701766433e+00  1.3197109145494501e+00  2.6979602490051918e-01  1.1353732038051543e+00  3.0856704392776830e+00  5.3579950896596841e+01  3.5653730256250238e-01  2.9842151030544045e-01  3.9111021955567304e+00  8.1813009335726417e-01  1.2592425191287260e+00  4.6325673770576259e-01  2.5622082864269329e+00  4.9168592666728358e+01  1.4518428397332288e+00  9.9004611695513951e+00  5.7885760559793842e-01  1.0203102877798098e+00  6.9757354372371708e+01  3.5962797149034202e+01  1.7338776515745815e+00  3.0516898838578155e-01  9.6177329566141501e-02  9.2482649907957970e-01  7.3797775873170268e-02  2.2897735461394646e+01  2.2893663428270354e+01  6.8594920885122562e+01  1.0011501658855730e+01  7.3431413146029332e+00  1.8215571278961482e+00  7.8822931817944140e+00  1.5667683812791746e+00  1.3997757135317780e+01  6.0989458816543713e+00  1.7828865221044166e+00  8.8947130475227143e-01  5.8511903385247022e-01  1.3438416991515359e+01  6.2259327863799726e+01  3.6471367059852238e+00  1.9387939732806498e+00  1.6920694753166621e+00  2.0202295016690762e+01  6.8593191348151017e-01  9.0734541482284076e-02  1.8557566858935628e+00  9.1228770817021374e+00  8.5426137176767671e+00  5.0606818638285422e-01  1.8171414390402592e+00  6.5295834469822625e+00  4.5487483754826229e+01  1.2919742793991428e+01  6.9339408840929062e+00  1.7001677265291328e+01  2.4069491684947590e+01  1.6211911362693299e+00  2.9054712970033375e-01  5.6137523988071958e-01  3.8584283808404102e-01  2.6531233866380123e+01  1.7883981460852025e-01  2.5184559778234455e-01  2.2296341459895412e+01  6.5720114772504118e+01  5.0679113563772322e+00  1.3514172101992730e+00  1.2791469422849437e+00  8.9723678676196927e-01  2.5799553506702826e+00  1.9609301547914046e+00  2.0817865943332639e-01  5.3912666974217205e-01  7.2721626692940011e-01  2.2060998700121313e+00  2.6441088373400107e-01  5.4361364808742915e-02  2.7362599267696246e+00  1.0612259874457795e-01  2.2937270225727699e-01  1.5632286141991343e+00  9.4745230822567605e-01  2.2420541630589348e+00  1.3598479118729397e+01  9.2822078094141993e+00  1.9749772368171661e+00  1.0920022106845806e+02  1.7443179235201779e+01  2.2696352032352252e+01  4.6401649769257552e-01  3.4790779535383699e+01  2.8075255475174012e+00  3.6769049552024788e+00  1.1884911304613639e+00  3.8885313187202204e+00  1.2236390491596212e+00  9.7704430659034838e+00  2.3412617446895204e+01  2.5918668084273694e-01  1.2099428141438102e+00  1.7043749719702115e+00  1.3850989884760509e-01  1.2576986908940719e+00  7.7996027761749190e+01  5.3962479652166220e+00  5.9657309581108475e-01  8.3847123911485014e+01  9.4232375710721115e+01  2.5010993214720164e-02  3.5071440061722643e+00  3.7215048251770244e+00  2.4293431772757916e+01  1.0861409774328052e+01  1.0648337514312234e+00  2.4373327766446479e-01  4.6109427705881234e-01  3.5376458501457876e+01  4.5632113363083633e+00  5.4749244722308873e+01  6.0846956434339627e-01  3.6336673540098297e-01  5.3676921581201409e-01  1.7965635103830458e+01  2.1650917940979792e+01  7.1254678010925630e+01  6.2862466647563426e+00  4.6356079260336216e+01  9.1985567289697059e+00  9.3984200065761101e+00  3.4581244011800139e+00  3.7877452443419162e+00  5.2581411127595112e+00  1.1697908138942157e+00  1.7832847469332525e-01  3.4200429604556084e+00  5.7237068935808367e+01  1.2515571314375443e+01  1.2481886603361967e+00  1.8030752864470276e+00  8.3319249943598805e+00  1.4667233802646541e+01  4.1268821505118025e-01  3.2981749099349953e+00  1.2153957677851604e+01  9.3712826991239118e-02  3.5279046656038121e-01  3.8711515416930076e-01  2.5027993685880708e-02  5.1345729641936879e