<?xml version="1.0"?>
<VTKFile type="UnstructuredGrid"  version="0.1"  >
<UnstructuredGrid>
<Piece  NumberOfPoints="3311" NumberOfCells="6266">
<Points>
<DataArray  type="Float64"  NumberOfComponents="3"  format="ascii">0 8 0  0 0 0  8 0 0  8 8 0  5.996053456856544 4.125581039058627 0  6 4 0  5.996053456856544 3.874418960941374 0  5.984229402628955 3.749333532871391 0  5.964574501457378 3.625237370828551 0  5.937166322257262 3.502620225670289 0  5.902113032590307 3.381966011250105 0  5.859552971776503 3.263750894630644 0  5.809654104932038 3.148441416869854 0  5.752613360087726 3.036492651796568 0  5.68865585100403 2.928346410042006 0  5.618033988749895 2.824429495415053 0  5.541026485551579 2.725152020502621 0  5.457937254842823 2.630905788142622 0  5.369094211857376 2.542062745157176 0  5.274847979497379 2.458973514448421 0  5.175570504584946 2.381966011250105 0  5.071653589957993 2.31134414899597 0  4.963507348203431 2.247386639912273 0  4.851558583130144 2.19034589506796 0  4.736249105369355 2.140447028223497 0  4.618033988749895 2.097886967409693 0  4.49737977432971 2.062833677742738 0  4.374762629171449 2.035425498542622 0  4.250666467128609 2.015770597371044 0  4.125581039058626 2.003946543143457 0  4 2 0  3.874418960941374 2.003946543143457 0  3.749333532871391 2.015770597371044 0  3.625237370828551 2.035425498542622 0  3.502620225670291 2.062833677742738 0  3.381966011250105 2.097886967409693 0  3.263750894630644 2.140447028223497 0  3.148441416869856 2.19034589506796 0  3.03649265179657 2.247386639912273 0  2.928346410042007 2.311344148995969 0  2.824429495415053 2.381966011250105 0  2.725152020502621 2.458973514448421 0  2.630905788142623 2.542062745157177 0  2.542062745157176 2.630905788142623 0  2.458973514448421 2.725152020502621 0  2.381966011250104 2.824429495415055 0  2.311344148995969 2.928346410042007 0  2.247386639912273 3.036492651796569 0  2.190345895067961 3.148441416869856 0  2.140447028223497 3.263750894630644 0  2.097886967409693 3.381966011250106 0  2.062833677742738 3.502620225670291 0  2.035425498542623 3.62523737082855 0  2.015770597371044 3.749333532871391 0  2.003946543143457 3.874418960941374 0  2 4 0  2.003946543143457 4.125581039058627 0  2.015770597371044 4.250666467128609 0  2.035425498542622 4.374762629171449 0  2.062833677742738 4.49737977432971 0  2.097886967409693 4.618033988749895 0  2.140447028223497 4.736249105369357 0  2.190345895067961 4.851558583130146 0  2.247386639912273 4.96350734820343 0  2.31134414899597 5.071653589957994 0  2.381966011250105 5.175570504584947 0  2.458973514448422 5.274847979497379 0  2.542062745157177 5.369094211857377 0  2.630905788142623 5.457937254842823 0  2.725152020502621 5.541026485551578 0  2.824429495415054 5.618033988749895 0  2.928346410042006 5.68865585100403 0  3.036492651796569 5.752613360087727 0  3.148441416869855 5.809654104932039 0  3.263750894630645 5.859552971776503 0  3.381966011250106 5.902113032590307 0  3.50262022567029 5.937166322257262 0  3.625237370828551 5.964574501457378 0  3.749333532871391 5.984229402628956 0  3.874418960941373 5.996053456856544 0  4 6 0  4.125581039058627 5.996053456856544 0  4.250666467128609 5.984229402628955 0  4.37476262917145 5.964574501457378 0  4.497379774329709 5.937166322257262 0  4.618033988749895 5.902113032590307 0  4.736249105369356 5.859552971776503 0  4.851558583130146 5.809654104932039 0  4.96350734820343 5.752613360087727 0  5.071653589957993 5.688655851004031 0  5.175570504584947 5.618033988749895 0  5.274847979497379 5.541026485551578 0  5.369094211857377 5.457937254842824 0  5.457937254842824 5.369094211857377 0  5.541026485551578 5.274847979497379 0  5.618033988749895 5.175570504584947 0  5.688655851004031 5.071653589957993 0  5.752613360087727 4.96350734820343 0  5.809654104932039 4.851558583130146 0  5.859552971776503 4.736249105369356 0  5.902113032590307 4.618033988749895 0  5.937166322257262 4.497379774329709 0  5.964574501457378 4.37476262917145 0  5.984229402628956 4.250666467128609 0  4 0 0  4 8 0  0 4 0  8 4 0  0 2 0  2 8 0  6 0 0  2 0 0  6 8 0  0 6 0  8 6 0  8 2 0  6.521298246749463 6.521298246749463 0  1 0 0  0 1 0  1.483805613147755 1.483805613147755 0  1.478701753250537 6.521298246749463 0  6.521298246749463 1.478701753250537 0  3 8 0  0 3 0  8 3 0  0 5 0  5 8 0  5 0 0  3 0 0  8 5 0  6.873734575860524 2.615431780543919 0  1.116982513655503 5.247593072616309 0  6.883017486344498 5.247593072616301 0  5.247593072616301 6.883017486344497 0  1.126098722170601 2.617891572298291 0  2.615431780543918 6.873734575860524 0  2.752406927383699 1.116982513655503 0  5.384568219456082 1.126265424139476 0  8 1 0  1 8 0  0 7 0  7 0 0  8 7 0  7 8 0  7.020499434641315 3.646406833984896 0  0.9797566053390774 3.648465816465237 0  3.715288427949091 7.011933824133993 0  4.353593166015106 0.9795005653586846 0  0.6967635209176272 4.5 0  3.5 0.6967635209176218 0  7.275042869145442 4.47475797999556 0  4.511587833362441 7.305805066533029 0  6.221909358080951 5.748059996166043 0  2.210760254282484 6.169547847869656 0  5.847454471986239 1.9044742386454 0  2.256260253799227 1.778178383200799 0  1.980629682828464 0.8249524138953971 0  0.6577483392967642 1.5 0  6.111193299431891 0.7920397023581334 0  0.6549706477735622 6.5 0  6.5 7.345029352226438 0  1.5 7.345029352226438 0  7.175403142852891 6.018842476908514 0  7.207960297641867 1.88880670056811 0  1.20233119856484 0.7548054172032042 0  7.138369340064689 0.8616306599353107 0  7.199038705435568 6.950962679584875 0  0.7268524757237351 7.273147524276265 0  5.787512723837678 6.360832417372146 0  1.584163534320421 5.803133310871846 0  0 0.5 0  0.5 0 0  1.813082410952285 2.362102895128433 0  4.585782825748341 6.620641716166908 0  3.414352878528616 1.379965389869018 0  1.37996538986902 4.585647121471382 0  5.5 8 0  5.795705687727962 7.325709583536691 0  0 5.5 0  0.6742904164633071 5.795705687727965 0  6.608410641840795 4.622450854667636 0  8 7.5 0  2.5 0 0  8 5.5 0  0.6430017150697597 2.16323374265656 0  8 2.5 0  5.5 0 0  2.5 8 0  2.162575541096604 7.357557400929156 0  6.209066202375347 2.498720159134196 0  8 6.5 0  3.213766170612044 6.557595245863999 0  4.810864017456047 1.461836067072289 0  6.474921798096663 3.108973325505615 0  1.461596867478842 3.191209948990856 0  0.6057536094346159 0.6057536094346163 0  3.5 8 0  3.116533476945463 7.331420182036469 0  7.5 0 0  7.50138895891471 1.352981564798016 0  6.5 0 0  4.925848415861192 0.6541083366372827 0  6.636309068723879 2.066043736464307 0  7.345891663362717 3.074151584138809 0  2.034062939515405 6.739458287989336 0  0.6538386597513111 3.07650783347036 0  1.306229817586613 2.051251581737755 0  1.711425920865481 5.22190430062486 0  5.172422863235413 6.301009428280244 0  2.75 0.5305166887675732 0  7.469483311232427 5.25 0  0.5722092524055858 5.06190966273399 0  5.072435773461397 7.430123991012138 0  6.319527671469182 5.122233284663893 0  2.835488340834966 1.696071607164519 0  5.920435248419656 1.334295501631503 0  4.5 0 0  8 3.5 0  7.432272671858859 2.512886319125838 0  5.571830688303236 0.5764100372080221 0  0 3.5 0  5.289311353655532 1.776472779228421 0  8 0.5 0  7.5 8 0  1.5 0 0  7.25 7.504032729381043 0  6.06696156120921 6.840932928848806 0  1.126750463624113 6.102788617506953 0  4.079942410528958 1.456191250380107 0  6.543808749619893 3.920057589471043 0  1.456853858348016 3.920078412765323 0  2.719154100210118 6.345760317541158 0  6.75 0.4820732229428856 0  1.147555431445879 6.942001202471608 0  0 2.5 0  4.033254072103534 6.555375438181171 0  7.459092130175394 3.96491680499676 0  4.023910705003057 0.5449410641392927 0  0.46324372358657 3.75 0  4.000538644612607 7.464791837989975 0  0 7.5 0  0.5 8 0  6.641367242777847 0.9816996559636945 0  2.060098699240311 5.602794388158723 0  8 1.5 0  1.5 8 0  6.5 8 0  0 6.5 0  0 1.5 0  4.5 8 0  8 4.5 0  3.5 0 0  0 4.5 0  5.71241378857682 5.847235604203799 0  1.980356857777504 1.341494340873432 0  6.73841195435907 5.743461321139284 0  7.001901661066728 1.342234074252575 0  2.271256172523833 0.4319561292819105 0  7.568195995774798 5.728421007950713 0  1.079620717833623 4.213724869256849 0  3.785914285080838 1.07957548172746 0  1.75 0.4068334879001349 0  7.593198924126513 6.25 0  2.644210543189512 7.51442503308679 0  1.759107121904632 1.881466257766474 0  7.598221819062164 0.75 0  7.25 0.4017781809378356 0  7.016697196788522 6.489226510093869 0  0.8135924992537802 1.042303878660207 0  7.590765621254587 6.709933711568556 0  6.972320805074426 4.114496419277549 0  0.6689706016379435 2.619626936075973 0  4.490317171939625 0.4719794785870491 0  7.586130070956817 7.194177964358491 0  1.564887898956812 2.745941764426699 0  7.45216884474369 3.51322113522411 0  7.58575169794429 4.808833363985082 0  3.538045596929494 7.533919544016318 0  4.268777385438645 6.932912710296469 0  6.25 0.3687278481717181 0  6.915054373976157 3.207810438216838 0  7.002360785621788 4.82228450274451 0  0.3972487693887257 4.181902501602563 0  0.9482937176147312 4.850514130935556 0  3.25 0.3483817604588109 0  3.078724571458289 0.822405414577691 0  1.086245288390012 5.675597706514477 0  1.074212327675575 1.667136181084258 0  2.267204536760128 2.246625033644231 0  4.821181984497242 6.992731518467086 0  2.439850702774412 0.8250274309749102 0  7.174972522369596 5.560160665184872 0  5.904966268715267 5.477643303883068 0  6.207512920818998 6.198213208971735 0  2.504889937937569 1.447997919101883 0  0.3997445887406886 1.156770199073539 0  0.3288741696483821 1.75 0  1.637615877582278 1.083042277773219 0  2.524803464880197 5.901811913432696 0  5.794604146187496 2.343782137192302 0  6.836411413561036 7.606548808898578 0  1.826315648259891 7.614255845340183 0  1.090927571027496 7.551079899216545 0  6.140889361672077 7.589220379873516 0  1.066148535748459 6.537245249458406 0  0.410779620126483 6.140889361672079 0  0.4489201007834544 6.909072428972504 0  6.470724483843425 6.932131515022222 0  1.638960019540123 6.929295531772199 0  5.660873205465542 6.931985632892141 0  3.623652679878191 6.609113767281198 0  7.62
[...]
<PointData  Scalars="f_24"> 
<DataArray  type="Float64"  Name="f_24"  format="ascii">1.9496799999999999e+02  2.9680000000000009e+00  6.6968000000000004e+01  2.5896800000000002e+02  8.9981913787001488e+01  8.6968000000000004e+01  8.3954023912187395e+01  8.0951507365430501e+01  7.7971186967991244e+01  7.5022989273969600e+01  7.2116020553225184e+01  6.9258570735661849e+01  6.6458130885338051e+01  6.3721423343903460e+01  6.1054443482780094e+01  5.8462511822460655e+01  5.5950335118132628e+01  5.3522074876048265e+01  5.1181421656748483e+01  4.8931673441084044e+01  4.6775816284181886e+01  4.4716605461827520e+01  4.2756645323437994e+01  4.0898466105666962e+01  3.9144596030004415e+01  3.7497627105331581e+01  3.5960273180638850e+01  3.4535418941947540e+01  3.3226158718448453e+01  3.2035824153169891e+01  3.0967999999999996e+01  3.0026527528231863e+01  2.9215495244390713e+01  2.8539216875204350e+01  2.8002196791363492e+01  2.7609083285333259e+01  2.7364610344094732e+01  2.7273528775584658e+01  2.7340527752183096e+01  2.7570148022499620e+01  2.7966688210822742e+01  2.8534105769125976e+01  2.9275914267030480e+01  3.0195078798563113e+01  3.1293911349307372e+01  3.2573968002462351e+01  3.4035949866715633e+01  3.5679609582499857e+01  3.7503665206425460e+01  3.9505723187237798e+01  4.1682212031780288e+01  4.4028328117853427e+01  4.6537994944673187e+01  4.9203836923367227e+01  5.2017168602482712e+01  5.4968000000000004e+01  5.8045058477296799e+01  6.1235827345540457e+01  6.4526601144902742e+01  6.7902557285679492e+01  7.1347843491775237e+01  7.4845680244966900e+01  7.8378477196672435e+01  8.1927962296264525e+01  8.5475322184699351e+01  8.9001352222539779e+01  9.2486614365181580e+01  9.5911600967717234e+01  9.9256902499485989e+01  1.0250337707560175e+02  1.0563231967081772e+02  1.0862562887069305e+02  1.1146596903639399e+02  1.1413692581232253e+02  1.1662315298936687e+02  1.1891050884966802e+02  1.2098618025971207e+02  1.2283879294515847e+02  1.2445850657058060e+02  1.2583709345734594e+02  1.2696799999999999e+02  1.2784639008228396e+02  1.2846917004463830e+02  1.2883499501190167e+02  1.2894425664898742e+02  1.2879905266966631e+02  1.2840313867527655e+02  1.2776186314240485e+02  1.2688208660764887e+02  1.2577208631002098e+02  1.2444144774417686e+02  1.2290094474755982e+02  1.2116240988920404e+02  1.1923859704520241e+02  1.1714303813400683e+02  1.1488989604253810e+02  1.1249381580076378e+02  1.0996977605766816e+02  1.0733294287558506e+02  1.0459852779339091e+02  1.0178165201322015e+02  9.8897218441795673e+01  9.5959793168220813e+01  9.2983497787603724e+01  1.8968000000000000e+01  2.1096799999999999e+02  5.0968000000000004e+01  1.1496800000000000e+02  1.4968000000000000e+01  1.9896799999999999e+02  3.8968000000000004e+01  6.9680000000000009e+00  2.3096799999999999e+02  1.1096800000000000e+02  1.7496799999999999e+02  7.8968000000000004e+01  2.5845352252004011e-01  3.9680000000000013e+00  5.9680000000000009e+00  1.6342015610611584e-02  1.9784358187872700e-01  7.7677476127976791e-02  2.0396799999999999e+02  2.9968000000000000e+01  9.3968000000000004e+01  7.7968000000000004e+01  2.1996799999999999e+02  2.7968000000000000e+01  1.1968000000000000e+01  1.4196799999999999e+02  4.0462851939154143e-01  4.7857405830455518e-01  7.6682044673572769e-01  1.0531963791981556e+00  1.4802815014872678e-01  8.6085021734618139e-01  1.0339417727078484e-01  1.8441626920777687e-01  6.9968000000000004e+01  1.9596799999999999e+02  1.4996799999999999e+02  5.1968000000000004e+01  2.1396799999999999e+02  2.4396799999999999e+02  1.0589049202231968e+00  5.1442541429416011e-01  1.8894727015939725e+00  2.8395079554230673e-01  1.9333110345276652e+00  4.6404603643105269e-01  3.2858611634569419e+00  6.5348451171629351e+00  1.4517967401158409e+00  1.4192303041806755e+00  7.3975091494810485e-01  3.6882802424335204e-01  1.0708968864838632e-01  3.6054488453955696e-01  7.2049287730077316e-01  4.5198122748345533e+00  8.6705610413459091e+00  7.0355483487304724e+00  2.6210101852104750e+00  1.4022585759968340e+00  1.0983520396409817e-01  1.4566869716479798e+00  4.5628619979191045e+00  8.2877460338076059e+00  8.2344997264318165e-01  4.5504942199340437e-01  3.7180000000000009e+00  3.2180000000000009e+00  6.7526030093690770e-01  3.5638775619756351e+00  7.7294664545004443e-01  1.8397839891108749e+00  2.2521799999999999e+02  7.3501030100542479e+00  9.3718000000000004e+01  3.3675418165122055e+00  2.8120705301817299e+00  2.3571799999999999e+02  9.2180000000000000e+00  1.5771799999999999e+02  6.5330716468263439e-01  8.5718000000000004e+01  3.3218000000000004e+01  2.0121799999999999e+02  7.5740109136402261e+00  1.7266891683567380e+00  1.9371799999999999e+02  3.5375313619501281e+00  1.1623912651671406e+00  2.5134208180339894e+00  1.2977021211401025e+00  3.3006322859822324e-01  2.0721799999999999e+02  6.9397181756046704e+00  5.9218000000000004e+01  5.7344773370843738e+00  4.5218000000000004e+01  9.6378881687039353e-01  1.4529198983182348e-01  3.4278316900816024e+00  3.9702753925528417e-01  1.1264460132100449e+00  5.0098567828295665e-02  3.3698160447774286e+00  5.7331867085007513e+00  7.0231261470919659e-01  9.7967396734117305e+00  4.3268662609648052e+00  1.2338065204646997e+01  4.8379724510521012e+00  1.2714549380626514e+00  9.4412482561126998e-02  2.3218000000000000e+01  1.0371800000000000e+02  4.7612894898504612e+00  1.8189160396328174e+00  3.9718000000000004e+01  2.0966491941653844e+00  6.7718000000000004e+01  2.5121800000000002e+02  5.2180000000000009e+00  2.3014629850845793e+01  6.6394851575030611e-01  4.1002142936469055e-01  1.7656634267576756e+00  4.7035151480529578e+00  3.0710214727258753e+00  3.1842833754769346e+00  4.2581483640569759e+00  1.3049449450064623e+00  2.1718000000000000e+01  6.7174921234386877e+00  7.1221847583759619e+00  1.2188820442022958e+00  4.4260823386395671e+00  1.3921797999794764e+01  1.7171799999999999e+02  1.9521799999999999e+02  3.8098151052996548e-01  5.9458415079617195e+00  7.3718000000000004e+01  1.9721799999999999e+02  2.3721799999999999e+02  1.2971799999999999e+02  9.7180000000000000e+00  2.1521799999999999e+02  1.2771800000000002e+02  1.5218000000000000e+01  6.3717999999999996e+01  7.5608111158741380e+00  3.2428385841936302e-02  4.3535308161915537e-01  4.9878205075291626e-01  9.0751578502354280e-01  1.8285585018363410e+01  6.7499824697950539e-01  2.8911683802600269e-01  7.8345225711124045e-01  2.3585548316935579e+01  1.7358688856186252e+01  1.0162286948972847e-01  9.7510316067231351e+00  8.2933440803825924e+00  1.3917736005596519e+00  1.2539081918557005e-01  2.5315492514199949e+01  1.1529100790940616e+00  8.1568912620457612e-01  2.1569080282839845e+00  2.9548174028378735e+01  7.3473512381753336e-01  6.3143491732026122e+00  1.6767806315706750e+01  1.9513085487422437e+01  1.7910477771409552e+00  6.1268786595848370e+00  7.3858082832477856e-01  1.1344131915301243e+00  7.3585738334499116e+00  7.4118747316653200e-01  2.3142898333210402e+00  2.2517263044232533e-01  4.6658884986597660e-01  5.5741939656295675e-02  2.5439544753011774e+00  1.7159685678692536e+00  1.4381808080505304e-01  2.4667630229040900e+00  1.3177090280681051e+01  3.5709643899603538e-01  1.8332993612213969e-01  9.4118613164881759e-01  2.2768024344045052e+00  2.8187902483769695e-02  1.2252236185159516e+01  5.1800194754011262e+00  3.2814320162405942e+01  2.8205662523275770e+01  2.0584480250259418e+01  2.8892929978398492e+01  6.9162270705035811e-01  1.4583709474104115e+01  1.5448980890374528e+01  1.1322564152784063e+00  8.7617670581902540e-01  1.0883496317582333e+00  4.3290885794917333e+00  1.1665842452126967e+01  2.3811968307127698e-01  3.4237327554873115e-01  7.9429657932203463e+00  2.4054459637729789e-01  5.9483771847604308e+00  8.4055426621618035e-01  3.8367746421478245e+01  3.6960343354564679e-01  4.1592796976288954e-01  2.9156893091780940e-02  1.3885273635602227e-01  4.8418226173602781e+00  1.3827659412074015e+01  2.2785668026773659e-01  3.2287301453578066e-01  8.7118281605933878e-01  1.0937996194921792e-01  2.6223015611642024e+00  6.3050808893097932e-01  1.5662958919322141e+00  7.3325010577650245e+00  1.0660937256755483e+00  2.8518950189174952e-01  5.6099772603807407e+00  4.1305156234924141e+00  1.2819615753396725e+01  3.8096767297048586e+01  3.2994056143479831e+01  1.9360114610962537e+01  6.0815809185290384e+00  1.6950475249132648e+01  3.9603911440311852e+00  1.0140212641418773e+00  2.0400918725330506e+01  5.5341820200531913e+01  9.2919746804403258e-01  1.5212538388464754e+01  1.7003006459266096e-01  1.0926167574615318e+01  5.1216637285856812e+01  5.6429041736249637e+01  3.5903750559878219e+01  5.4883486430498124e+01  9.1779597800729806e-01  4.6232576623741126e+00  1.5781068327250894e+01  5.4430743916395921e+00  1.7629668562646186e+00  1.3384007649580123e+01  1.1689278800903027e+00  7.8299973014753448e+00  5.6160167017086426e-01  1.0748367754102111e+00  1.7307244615308826e-01  4.3950085070110241e+00  3.8573912296681613e+01  9.6352779005713451e-01  1.0779462242613720e+00  1.7298985676478495e+01  1.5539661431260592e+01  3.6679812323762508e+00  3.4177743665526168e+00  7.5779180024398771e+00  8.3094691692957703e+00  1.2741907993689014e+00  9.4086746666238952e+00  2.2900390236005874e+00  5.0347911070354465e+00  2.7944745077886189e+01  2.1278430601388174e-01  2.1255223201777254e+00  5.6573243800230820e+01  1.4558150384109261e+00  9.9236819357399331e-01  1.3869420542879874e+01  4.8026608348555291e+00  4.2779062796652827e+00  1.7797121641242568e+00  2.8784808638062112e+00  5.2445476352159970e+00  1.5418634790074943e+00  5.1848583382934223e-02  2.1204193165239651e-01  2.2214280672540205e+01  2.7419735825667728e+00  1.4049233279511728e-01  1.8506975309169562e+01  1.3031816103308844e+00  1.1067339976787636e+00  5.5677102181734242e+00  5.7751683992679945e+00  5.3750132519285501e+00  1.3212097141678072e+00  1.8344408763868933e+00  1.1817162556973522e+00  3.4413477578048995e-01  8.4029693534737104e-01  1.3144214278826447e-01  3.2168021819425263e-01  5.4195726120612375e-01  3.0439953939446035e-01  8.7371107075974819e-01  3.0745003548795452e-01  4.8455203996444796e-01  2.1627415597124095e+01  3.1690106411016744e-01  5.0333624415985145e-01  5.9607563591408907e-01  8.2840414810313678e-01  2.8036476426866569e-01  2.0903049999999999e+02  4.3717470641786910e+01  3.5987529798127326e+01  2.4220409919895662e+01  1.4690600199272923e+00  6.3394569936954503e-01  3.9531517894882349e+01  1.0202972205308766e+01  3.3787226009352809e+00  8.0332683072151620e-02  2.8919676915450840e+00  1.3594161959399031e+01  3.7389494974012978e+00  4.0729295440759268e+00  9.2938128763613667e-02  5.1201974140440865e-01  7.1564471845210909e+00  2.1797191427704945e+01  2.9823036800286479e-01  2.1129105201614205e+01  1.4736376077682490e+01  4.6593391702967804e+00  1.7867486109250639e+00  4.6507044307752832e+00  1.7143432218078414e+00  1.6335206713404227e+00  1.3674976911907201e+01  1.3965549999999999e+02  1.6809505887125131e+00  1.2831114144070904e-01  1.4543024454271503e+01  3.6321239270800121e-01  2.6490814669931684e-01  1.5199333962697397e+00  2.8510884626660840e+00  1.7801049136887306e+00  1.3807624387978698e-01  3.2339538342019733e-02  4.3158541143808399e+01  1.9039528345138557e+01  2.0063384347859916e+01  5.8788684445146959e+00  2.5346176347395799e+00  3.3385869415380668e+01  3.3291327675569953e+01  2.0518440558706881e+00  1.7425727947627367e-01  2.3005649116379483e+00  5.4094384127944899e+00  3.9662382151939940e-01  3.3805178304062661e-01  6.8030739315129862e+00  1.8833596121672656e+01  4.8778305918750542e-01  3.4448078342671762e-01  1.9905325894877219e+00  8.9893785653617414e-02  9.5235000587535286e+00  3.9745804860213430e-01  3.3744835242165432e+00  2.1123802507872647e-01  1.9125343179285048e-01  2.9292039737010240e+00  5.3530539934623931e+01  9.1037955795145944e+00  5.9731382039486269e-01  8.0293267843009879e+00  1.3370171383594576e-01  9.4929339460838313e-01  2.9033647429481948e+00  2.0032675875057190e+01  2.7456274904034128e+00  2.4715550000000002e+02  1.2015550000000000e+02  2.3403049999999999e+02  6.6766218929190702e-01  4.6258680890455226e+00  6.0902649449237800e-01  3.1670825973232142e-01  2.5503050000000002e+02  1.3187414547593315e+01  4.4168545882036314e+00  3.7781677008709735e-01  1.9643845201829693e+00  3.8326920847129226e-01  2.0104813887837847e+00  1.0178791217482761e+01  7.1686409264417804e+01  6.2828035800123068e+01  2.6356289551832862e-01  1.8585990716197390e+01  5.9123898887487254e+00  7.0865796458164763e+00  1.1700129846610954e+00  1.3276645478044922e+00  1.1296956216047047e+01  3.4418961598007947e+00  1.1621919331519932e-01  1.7815127397728541e+00  1.7966760800566879e+00  1.0015317570988258e+00  5.2792180079091333e-01  9.7088616598178490e-01  2.0924565790733834e-01  2.4902551054064262e-01  4.4921060786936459e-02  2.9649858109602015e+01  1.0175979002623559e+00  2.0553299951359172e-01  1.0679757573615298e+01  4.8530500000000004e+01  1.1452847157520250e+01  2.9130801190609241e+00  9.5593517233177905e-01  5.4608778912240308e-01  2.8969603731217248e+01  5.3888365675175116e+00  2.9848647754776767e+00  7.4113710475673367e+00  2.6922206520748485e+01  1.0530500000000000e+01  2.1401796565065560e+01  1.9166442319037873e+00  7.6988364454544311e-01  1.5772489689028171e+00  7.1655500000000004e+01  8.2813975876368917e-01  3.0912994151059983e+00  8.3084944747261413e-02  6.6924470007126944e+00  2.0253049999999999e+02  2.6679721078611411e+01  3.6199830106536433e+00  3.8533115162113818e+00  1.9225284290446969e+00  7.5104108663065805e-01  2.2142623834694916e+01  7.6555000000000009e+00  1.1727619881565903e+00  9.9426219807154546e+00  4.5155500000000004e+01  1.2659608587977482e+01  1.2115550000000000e+02  1.3057533523408866e+00  1.4383991996331252e+01  1.9653049999999999e+02  3.8296795683304431e+01  1.6615549999999999e+02  1.0354362297542043e+01  4.5751407336677108e-01  1.7601877870171381e+00  6.0305000000000009e+00  2.4481245936874266e-01  7.3677521529995582e+00  1.8057684128134788e+01  1.6005230516507136e+00  2.2574316159156713e+00  2.4053049999999999e+02  3.3959754603229214e+01  3.9431169136013501e-02  1.8652571013708576e-02  5.8400244540577162e-01  5.7908947233597274e-01  7.3743672852920894e-01  3.5267383421882639e-02  2.2465549999999999e+02  4.9316650696879600e+00  2.5046582836580924e-02  6.3030500000000004e+01  6.7155500000000004e+01  4.9278997177415347e+00  2.9558346528254448e-01  2.7901215202021074e+01  6.6404439161003803e-02  1.3602637439433332e-01  1.4965549999999999e+02  8.0305000000000000e+00  1.0906289953944135e+01  2.3197217569356923e+00  5.7155500000000004e+01  4.4024990487551685e-01  8.8365768704613157e-01  4.2695607056511964e+00  5.8680913383078810e+01  1.0460531270161031e+01  7.4015948977670998e-01  1.9803049999999999e+02  2.9314197125661234e+00  6.9226297576992613e+00  4.9662462869193846e-01  1.0366444628854843e+00  1.8143227488789466e+00  6.2525974109017062e+00  2.0365549999999999e+02  5.3253391346030455e+01  1.4500013119756305e+01  5.3660981366914783e+01  1.8495909942926726e+01  6.0141394417487071e+00  4.0509819744547197e+00  1.3465549999999999e+02  1.0215550000000000e+02  2.0553049999999999e+02  1.0915550000000000e+02  3.6030500000000004e+01  3.0305000000000009e+00  3.1555000000000009e+00  4.6555000000000009e+00  2.0003049999999999e+02  2.5530500000000000e+01  2.1303049999999999e+02  1.8315549999999999e+02  3.5305000000000009e+00  1.9503049999999999e+02  2.2803049999999999e+02  8.9655500000000004e+01  9.8655500000000004e+01  1.7030500000000000e+01  1.6065549999999999e+02  1.9553049999999999e+02  8.2155500000000004e+01  1.8155500000000000e+01  2.5655500000000000e+01  3.4655500000000004e+01  7.0655500000000004e+01  2.1753049999999999e+02  4.5305000000000009e+00  3.0530500000000000e+01  7.6155500000000004e+01  1.2155500000000000e+01  1.3530500000000000e+01  4.2030500000000004e+01  5.5530500000000004e+01  6.8655500000000004e+01  1.8415549999999999e+02  2.1030500000000000e+01  8.5655500000000004e+01  2.2253049999999999e+02  2.4753050000000002e+02  1.2750055130277691e+00  1.7968285303506912e-01  4.5046805358796291e+00  3.7368332823805683e-01  3.5586586487977252e+00  2.8546274791515072e+00  5.4752189190119205e-01  8.0718268565370948e+01  8.4383327321342350e-01  2.7622576402244308e+00  1.4841229463686501e+00  1.8061688808652623e+00  5.5892315592029074e-01  1.9708395350060448e+00  2.7176279601690592e+01  5.6290233978659709e-01  9.6859976417774938e+00  4.9908178982152576e+00  2.1686402688505595e+01  8.2262569443821789e+00  1.2161188631073350e+00  2.5341858828810959e-01  1.0911098222482294e+00  3.0625755416495912e+00  5.3212007125558088e+01  2.9942617259941029e-01  2.9122362580734301e-01  3.8550224176940846e+00  7.9857790040580690e-01  1.2266746127179076e+00  4.3968188259409391e-01  2.0291662901693930e+00  4.8792817558828276e+01  1.4363855251048605e+00  9.8396747161813689e+00  5.5795740077371392e-01  1.0068229006158378e+00  6.9232238177877761e+01  3.5580661586202929e+01  1.7159292898722021e+00  2.4689981485262127e-01  8.2161013385318685e-02  9.1620170307553905e-01  5.7806351852860462e-02  2.2322910573607462e+01  2.2399172717675192e+01  6.8082326526935390e+01  9.8984890802964163e+00  6.8938661560807990e+00  1.7209136082319545e+00  7.8211897652763351e+00  1.5470348884377101e+00  1.3603547754913929e+01  5.6540310342553628e+00  1.2999544758698240e+00  8.4672091930214044e-01  5.8125232560185380e-01  1.3341852261589001e+01  6.1815242217310313e+01  3.5817127834917994e+00  1.8371897068073837e+00  1.6312107747900426e+00  1.9709068003416800e+01  6.7324693717483108e-01  8.4159521179498001e-02  1.7672461105655313e+00  8.8874211761293029e+00  8.1085162056868292e+00  4.5750445670687301e-01  1.7880766485212234e+00  6.4687609352582252e+00  4.5049065507538174e+01  1.2822511638763302e+01  6.8613784163813847e+00  1.6557435049957739e+01  2.3919729001926360e+01  1.5619133610386553e+00  2.7908838610431042e-01  5.3819385006293530e-01  3.6615096688994547e-01  2.5973347396655953e+01  1.6000370434381631e-01  2.4557052713322264e-01  2.1830005816547065e+01  6.5260205910759765e+01  4.9932464986793184e+00  1.3253810737529286e+00  1.2592972732148360e+00  8.8300230217666120e-01  2.4796828594276912e+00  1.9460367620610191e+00  2.0621520693021775e-01  5.3285579810135364e-01  7.1826709040809367e-01  2.1411117800459429e+00  2.4555675971600738e-01  4.9671774752362813e-02  2.6768352473232331e+00  1.0054405150233342e-01  2.1842168251122671e-01  1.5275583343112700e+00  9.3992121781625937e-01  2.1639411327785303e+00  1.3195464223828386e+01  9.1571394264420292e+00  1.9546460833275363e+00  1.0855660545035575e+02  1.7090305662815076e+01  2.2255416329888003e+01  4.4154194752226911e-01  3.4393046143223472e+01  2.7277132278619693e+00  3.5840082598379519e+00  1.1720360733760311e+00  3.8291719783157450e+00  1.2049972690903650e+00  9.3450725373163923e+00  2.3243640789914430e+01  2.4768823081504626e-01  1.1991078231285723e+00  1.6866678354509688e+00  1.2692836454363624e-01  1.2399815382793038e+00  7.7406918061704559e+01  4.8920353675186226e+00  5.9192273621270797e-01  8.3281066595956091e+01  9.3649137198943066e+01  2.0310429122916748e-02  3.4076218300669781e+00  3.6505016402150767e+00  2.3842751853947643e+01  1.0737285193735691e+01  1.0330168050893871e+00  2.3427100773510426e-01  4.4356968995670043e-01  3.4891083928628028e+01  4.3357660863232823e+00  5.4166357723700628e+01  6.0283069370697540e-01  3.5800339449152602e-01  5.2616068959110573e-01  1.7852668257297339e+01  2.1511756578219313e+01  7.0798234074654729e+01  6.2102310050691534e+00  4.5767404126164365e+01  9.0742046803586209e+00  8.9365071780333789e+00  3.4337771738515066e+00  3.7616364983727517e+00  5.1982596640506369e+00  1.1399300376842463e+00  1.7357600850873689e-01  2.9098158080614658e+00  5.6720143118554702e+01  1.2028573100459052e+01  1.2218795074381150e+00  1.7687032811151280e+00  8.1368795927358608e+00  1.4193838588398538e+01  3.6620847366324710e-01  2.7099257677042354e+00  1.2028377815709211e+01  7.5848460426062414e-02  3.4781801561372433e-01  3.8063863340040605e-01  2.2579714035916670e-02  5.0286399673900917e