<?xml version="1.0"?>
<VTKFile type="UnstructuredGrid"  version="0.1"  >
<UnstructuredGrid>
<Piece  NumberOfPoints="3311" NumberOfCells="6266">
<Points>
<DataArray  type="Float64"  NumberOfComponents="3"  format="ascii">0 8 0  0 0 0  8 0 0  8 8 0  5.996053456856544 4.125581039058627 0  6 4 0  5.996053456856544 3.874418960941374 0  5.984229402628955 3.749333532871391 0  5.964574501457378 3.625237370828551 0  5.937166322257262 3.502620225670289 0  5.902113032590307 3.381966011250105 0  5.859552971776503 3.263750894630644 0  5.809654104932038 3.148441416869854 0  5.752613360087726 3.036492651796568 0  5.68865585100403 2.928346410042006 0  5.618033988749895 2.824429495415053 0  5.541026485551579 2.725152020502621 0  5.457937254842823 2.630905788142622 0  5.369094211857376 2.542062745157176 0  5.274847979497379 2.458973514448421 0  5.175570504584946 2.381966011250105 0  5.071653589957993 2.31134414899597 0  4.963507348203431 2.247386639912273 0  4.851558583130144 2.19034589506796 0  4.736249105369355 2.140447028223497 0  4.618033988749895 2.097886967409693 0  4.49737977432971 2.062833677742738 0  4.374762629171449 2.035425498542622 0  4.250666467128609 2.015770597371044 0  4.125581039058626 2.003946543143457 0  4 2 0  3.874418960941374 2.003946543143457 0  3.749333532871391 2.015770597371044 0  3.625237370828551 2.035425498542622 0  3.502620225670291 2.062833677742738 0  3.381966011250105 2.097886967409693 0  3.263750894630644 2.140447028223497 0  3.148441416869856 2.19034589506796 0  3.03649265179657 2.247386639912273 0  2.928346410042007 2.311344148995969 0  2.824429495415053 2.381966011250105 0  2.725152020502621 2.458973514448421 0  2.630905788142623 2.542062745157177 0  2.542062745157176 2.630905788142623 0  2.458973514448421 2.725152020502621 0  2.381966011250104 2.824429495415055 0  2.311344148995969 2.928346410042007 0  2.247386639912273 3.036492651796569 0  2.190345895067961 3.148441416869856 0  2.140447028223497 3.263750894630644 0  2.097886967409693 3.381966011250106 0  2.062833677742738 3.502620225670291 0  2.035425498542623 3.62523737082855 0  2.015770597371044 3.749333532871391 0  2.003946543143457 3.874418960941374 0  2 4 0  2.003946543143457 4.125581039058627 0  2.015770597371044 4.250666467128609 0  2.035425498542622 4.374762629171449 0  2.062833677742738 4.49737977432971 0  2.097886967409693 4.618033988749895 0  2.140447028223497 4.736249105369357 0  2.190345895067961 4.851558583130146 0  2.247386639912273 4.96350734820343 0  2.31134414899597 5.071653589957994 0  2.381966011250105 5.175570504584947 0  2.458973514448422 5.274847979497379 0  2.542062745157177 5.369094211857377 0  2.630905788142623 5.457937254842823 0  2.725152020502621 5.541026485551578 0  2.824429495415054 5.618033988749895 0  2.928346410042006 5.68865585100403 0  3.036492651796569 5.752613360087727 0  3.148441416869855 5.809654104932039 0  3.263750894630645 5.859552971776503 0  3.381966011250106 5.902113032590307 0  3.50262022567029 5.937166322257262 0  3.625237370828551 5.964574501457378 0  3.749333532871391 5.984229402628956 0  3.874418960941373 5.996053456856544 0  4 6 0  4.125581039058627 5.996053456856544 0  4.250666467128609 5.984229402628955 0  4.37476262917145 5.964574501457378 0  4.497379774329709 5.937166322257262 0  4.618033988749895 5.902113032590307 0  4.736249105369356 5.859552971776503 0  4.851558583130146 5.809654104932039 0  4.96350734820343 5.752613360087727 0  5.071653589957993 5.688655851004031 0  5.175570504584947 5.618033988749895 0  5.274847979497379 5.541026485551578 0  5.369094211857377 5.457937254842824 0  5.457937254842824 5.369094211857377 0  5.541026485551578 5.274847979497379 0  5.618033988749895 5.175570504584947 0  5.688655851004031 5.071653589957993 0  5.752613360087727 4.96350734820343 0  5.809654104932039 4.851558583130146 0  5.859552971776503 4.736249105369356 0  5.902113032590307 4.618033988749895 0  5.937166322257262 4.497379774329709 0  5.964574501457378 4.37476262917145 0  5.984229402628956 4.250666467128609 0  4 0 0  4 8 0  0 4 0  8 4 0  0 2 0  2 8 0  6 0 0  2 0 0  6 8 0  0 6 0  8 6 0  8 2 0  6.521298246749463 6.521298246749463 0  1 0 0  0 1 0  1.483805613147755 1.483805613147755 0  1.478701753250537 6.521298246749463 0  6.521298246749463 1.478701753250537 0  3 8 0  0 3 0  8 3 0  0 5 0  5 8 0  5 0 0  3 0 0  8 5 0  6.873734575860524 2.615431780543919 0  1.116982513655503 5.247593072616309 0  6.883017486344498 5.247593072616301 0  5.247593072616301 6.883017486344497 0  1.126098722170601 2.617891572298291 0  2.615431780543918 6.873734575860524 0  2.752406927383699 1.116982513655503 0  5.384568219456082 1.126265424139476 0  8 1 0  1 8 0  0 7 0  7 0 0  8 7 0  7 8 0  7.020499434641315 3.646406833984896 0  0.9797566053390774 3.648465816465237 0  3.715288427949091 7.011933824133993 0  4.353593166015106 0.9795005653586846 0  0.6967635209176272 4.5 0  3.5 0.6967635209176218 0  7.275042869145442 4.47475797999556 0  4.511587833362441 7.305805066533029 0  6.221909358080951 5.748059996166043 0  2.210760254282484 6.169547847869656 0  5.847454471986239 1.9044742386454 0  2.256260253799227 1.778178383200799 0  1.980629682828464 0.8249524138953971 0  0.6577483392967642 1.5 0  6.111193299431891 0.7920397023581334 0  0.6549706477735622 6.5 0  6.5 7.345029352226438 0  1.5 7.345029352226438 0  7.175403142852891 6.018842476908514 0  7.207960297641867 1.88880670056811 0  1.20233119856484 0.7548054172032042 0  7.138369340064689 0.8616306599353107 0  7.199038705435568 6.950962679584875 0  0.7268524757237351 7.273147524276265 0  5.787512723837678 6.360832417372146 0  1.584163534320421 5.803133310871846 0  0 0.5 0  0.5 0 0  1.813082410952285 2.362102895128433 0  4.585782825748341 6.620641716166908 0  3.414352878528616 1.379965389869018 0  1.37996538986902 4.585647121471382 0  5.5 8 0  5.795705687727962 7.325709583536691 0  0 5.5 0  0.6742904164633071 5.795705687727965 0  6.608410641840795 4.622450854667636 0  8 7.5 0  2.5 0 0  8 5.5 0  0.6430017150697597 2.16323374265656 0  8 2.5 0  5.5 0 0  2.5 8 0  2.162575541096604 7.357557400929156 0  6.209066202375347 2.498720159134196 0  8 6.5 0  3.213766170612044 6.557595245863999 0  4.810864017456047 1.461836067072289 0  6.474921798096663 3.108973325505615 0  1.461596867478842 3.191209948990856 0  0.6057536094346159 0.6057536094346163 0  3.5 8 0  3.116533476945463 7.331420182036469 0  7.5 0 0  7.50138895891471 1.352981564798016 0  6.5 0 0  4.925848415861192 0.6541083366372827 0  6.636309068723879 2.066043736464307 0  7.345891663362717 3.074151584138809 0  2.034062939515405 6.739458287989336 0  0.6538386597513111 3.07650783347036 0  1.306229817586613 2.051251581737755 0  1.711425920865481 5.22190430062486 0  5.172422863235413 6.301009428280244 0  2.75 0.5305166887675732 0  7.469483311232427 5.25 0  0.5722092524055858 5.06190966273399 0  5.072435773461397 7.430123991012138 0  6.319527671469182 5.122233284663893 0  2.835488340834966 1.696071607164519 0  5.920435248419656 1.334295501631503 0  4.5 0 0  8 3.5 0  7.432272671858859 2.512886319125838 0  5.571830688303236 0.5764100372080221 0  0 3.5 0  5.289311353655532 1.776472779228421 0  8 0.5 0  7.5 8 0  1.5 0 0  7.25 7.504032729381043 0  6.06696156120921 6.840932928848806 0  1.126750463624113 6.102788617506953 0  4.079942410528958 1.456191250380107 0  6.543808749619893 3.920057589471043 0  1.456853858348016 3.920078412765323 0  2.719154100210118 6.345760317541158 0  6.75 0.4820732229428856 0  1.147555431445879 6.942001202471608 0  0 2.5 0  4.033254072103534 6.555375438181171 0  7.459092130175394 3.96491680499676 0  4.023910705003057 0.5449410641392927 0  0.46324372358657 3.75 0  4.000538644612607 7.464791837989975 0  0 7.5 0  0.5 8 0  6.641367242777847 0.9816996559636945 0  2.060098699240311 5.602794388158723 0  8 1.5 0  1.5 8 0  6.5 8 0  0 6.5 0  0 1.5 0  4.5 8 0  8 4.5 0  3.5 0 0  0 4.5 0  5.71241378857682 5.847235604203799 0  1.980356857777504 1.341494340873432 0  6.73841195435907 5.743461321139284 0  7.001901661066728 1.342234074252575 0  2.271256172523833 0.4319561292819105 0  7.568195995774798 5.728421007950713 0  1.079620717833623 4.213724869256849 0  3.785914285080838 1.07957548172746 0  1.75 0.4068334879001349 0  7.593198924126513 6.25 0  2.644210543189512 7.51442503308679 0  1.759107121904632 1.881466257766474 0  7.598221819062164 0.75 0  7.25 0.4017781809378356 0  7.016697196788522 6.489226510093869 0  0.8135924992537802 1.042303878660207 0  7.590765621254587 6.709933711568556 0  6.972320805074426 4.114496419277549 0  0.6689706016379435 2.619626936075973 0  4.490317171939625 0.4719794785870491 0  7.586130070956817 7.194177964358491 0  1.564887898956812 2.745941764426699 0  7.45216884474369 3.51322113522411 0  7.58575169794429 4.808833363985082 0  3.538045596929494 7.533919544016318 0  4.268777385438645 6.932912710296469 0  6.25 0.3687278481717181 0  6.915054373976157 3.207810438216838 0  7.002360785621788 4.82228450274451 0  0.3972487693887257 4.181902501602563 0  0.9482937176147312 4.850514130935556 0  3.25 0.3483817604588109 0  3.078724571458289 0.822405414577691 0  1.086245288390012 5.675597706514477 0  1.074212327675575 1.667136181084258 0  2.267204536760128 2.246625033644231 0  4.821181984497242 6.992731518467086 0  2.439850702774412 0.8250274309749102 0  7.174972522369596 5.560160665184872 0  5.904966268715267 5.477643303883068 0  6.207512920818998 6.198213208971735 0  2.504889937937569 1.447997919101883 0  0.3997445887406886 1.156770199073539 0  0.3288741696483821 1.75 0  1.637615877582278 1.083042277773219 0  2.524803464880197 5.901811913432696 0  5.794604146187496 2.343782137192302 0  6.836411413561036 7.606548808898578 0  1.826315648259891 7.614255845340183 0  1.090927571027496 7.551079899216545 0  6.140889361672077 7.589220379873516 0  1.066148535748459 6.537245249458406 0  0.410779620126483 6.140889361672079 0  0.4489201007834544 6.909072428972504 0  6.470724483843425 6.932131515022222 0  1.638960019540123 6.929295531772199 0  5.660873205465542 6.931985632892141 0  3.623652679878191 6.609113767281198 0  7.62
[...]
<PointData  Scalars="f_24"> 
<DataArray  type="Float64"  Name="f_24"  format="ascii">1.9333600000000001e+02  1.3360000000000001e+00  6.5335999999999999e+01  2.5733600000000001e+02  8.8349913787001483e+01  8.5335999999999999e+01  8.2322023912187390e+01  7.9319507365430496e+01  7.6339186967991239e+01  7.3390989273969595e+01  7.0484020553225179e+01  6.7626570735661844e+01  6.4826130885338046e+01  6.2089423343903455e+01  5.9422443482780089e+01  5.6830511822460650e+01  5.4318335118132623e+01  5.1890074876048260e+01  4.9549421656748478e+01  4.7299673441084039e+01  4.5143816284181881e+01  4.3084605461827515e+01  4.1124645323437989e+01  3.9266466105666957e+01  3.7512596030004410e+01  3.5865627105331576e+01  3.4328273180638845e+01  3.2903418941947535e+01  3.1594158718448451e+01  3.0403824153169886e+01  2.9335999999999995e+01  2.8394527528231862e+01  2.7583495244390711e+01  2.6907216875204348e+01  2.6370196791363490e+01  2.5977083285333258e+01  2.5732610344094731e+01  2.5641528775584657e+01  2.5708527752183095e+01  2.5938148022499618e+01  2.6334688210822740e+01  2.6902105769125974e+01  2.7643914267030478e+01  2.8563078798563112e+01  2.9661911349307367e+01  3.0941968002462350e+01  3.2403949866715628e+01  3.4047609582499852e+01  3.5871665206425455e+01  3.7873723187237793e+01  4.0050212031780283e+01  4.2396328117853422e+01  4.4905994944673182e+01  4.7571836923367222e+01  5.0385168602482707e+01  5.3335999999999999e+01  5.6413058477296794e+01  5.9603827345540452e+01  6.2894601144902744e+01  6.6270557285679487e+01  6.9715843491775232e+01  7.3213680244966895e+01  7.6746477196672430e+01  8.0295962296264520e+01  8.3843322184699346e+01  8.7369352222539774e+01  9.0854614365181575e+01  9.4279600967717229e+01  9.7624902499485984e+01  1.0087137707560174e+02  1.0400031967081772e+02  1.0699362887069304e+02  1.0983396903639398e+02  1.1250492581232253e+02  1.1499115298936687e+02  1.1727850884966801e+02  1.1935418025971207e+02  1.2120679294515848e+02  1.2282650657058062e+02  1.2420509345734592e+02  1.2533600000000000e+02  1.2621439008228396e+02  1.2683717004463831e+02  1.2720299501190168e+02  1.2731225664898741e+02  1.2716705266966630e+02  1.2677113867527655e+02  1.2612986314240487e+02  1.2525008660764887e+02  1.2414008631002100e+02  1.2280944774417686e+02  1.2126894474755981e+02  1.1953040988920404e+02  1.1760659704520241e+02  1.1551103813400682e+02  1.1325789604253809e+02  1.1086181580076378e+02  1.0833777605766815e+02  1.0570094287558506e+02  1.0296652779339091e+02  1.0014965201322015e+02  9.7265218441795668e+01  9.4327793168220808e+01  9.1351497787603719e+01  1.7335999999999999e+01  2.0933600000000001e+02  4.9335999999999999e+01  1.1333600000000000e+02  1.3336000000000000e+01  1.9733600000000001e+02  3.7335999999999999e+01  5.3360000000000003e+00  2.2933600000000001e+02  1.0933600000000000e+02  1.7333600000000001e+02  7.7335999999999999e+01  2.5631293880150569e-01  2.3359999999999999e+00  4.3360000000000003e+00  1.4250068127326826e-02  1.9570462960554769e-01  7.5516294445631210e-02  2.0233600000000001e+02  2.8335999999999999e+01  9.2335999999999999e+01  7.6335999999999999e+01  2.1833600000000001e+02  2.6335999999999999e+01  1.0336000000000000e+01  1.4033600000000001e+02  3.9638310883468303e-01  4.6908483860222161e-01  7.5730696710479761e-01  1.0437820736340324e+00  1.3975706976192551e-01  8.5254923126637294e-01  9.3979438302881940e-02  1.7596324940220565e-01  6.8335999999999999e+01  1.9433600000000001e+02  1.4833600000000001e+02  5.0335999999999999e+01  2.1233600000000001e+02  2.4233600000000001e+02  1.0412503233835892e+00  4.9616282912296317e-01  1.8719005599096183e+00  2.6637299802266301e-01  1.8840911766246300e+00  4.1584964257494161e-01  3.2433989715964024e+00  6.4847986355372669e+00  1.4314202477304419e+00  1.3967237650328455e+00  7.1576351028597296e-01  3.4783890875435047e-01  8.2756879292509689e-02  3.0199820299650515e-01  6.9148887547941351e-01  4.4633977866765733e+00  8.6108937706534405e+00  6.9772346292990894e+00  2.5967015155495980e+00  1.3729328485648975e+00  7.1604667516175308e-02  1.4181234866107508e+00  4.5288317112497651e+00  8.2118073533229019e+00  8.1287870411661522e-01  4.4686764900583387e-01  2.0859999999999999e+00  1.5860000000000001e+00  6.4151778017479089e-01  3.5195166458075309e+00  7.2823038586668831e-01  1.7946481206012674e+00  2.2358600000000001e+02  7.2976058837260673e+00  9.2085999999999999e+01  3.3147103150282589e+00  2.7656891348899300e+00  2.3408600000000001e+02  7.5860000000000003e+00  1.5608600000000001e+02  5.9190945900617975e-01  8.4085999999999999e+01  3.1585999999999999e+01  1.9958600000000001e+02  7.5120797665824588e+00  1.6798081064303685e+00  1.9208600000000001e+02  3.4897401356011448e+00  1.1118195714568635e+00  2.4558155855733554e+00  1.2474566504442555e+00  1.9543645037653801e-01  2.0558600000000001e+02  6.8840797264981646e+00  5.7585999999999999e+01  5.6054903461610150e+00  4.3585999999999999e+01  9.0661015163017578e-01  1.4180408412970427e-01  3.3692279294699508e+00  3.9321730196248139e-01  1.0684071890150890e+00  4.6580247969577271e-02  3.3019505863148804e+00  5.6596243141161064e+00  5.9474561275008053e-01  9.6901037781434542e+00  4.2387103074362864e+00  1.2246717869213347e+01  4.7646581491370279e+00  1.1963608253235543e+00  9.0832713141717966e-02  2.1585999999999999e+01  1.0208600000000000e+02  4.6712434606481796e+00  1.7318748215087001e+00  3.8085999999999999e+01  2.0181461340180120e+00  6.6085999999999999e+01  2.4958600000000001e+02  3.5859999999999999e+00  2.2860897239848740e+01  6.5901574797187479e-01  4.0418792892824507e-01  1.6746236504373384e+00  4.6141068516977048e+00  2.9780291416888938e+00  3.1377471689061589e+00  4.1161724071442336e+00  1.2929012421961374e+00  2.0085999999999999e+01  6.6315464067991678e+00  7.0205191768861015e+00  1.1160360443876169e+00  4.2671577743032163e+00  1.3813878164244526e+01  1.7008600000000001e+02  1.9358600000000001e+02  3.6852702432216250e-01  5.8407773994583998e+00  7.2085999999999999e+01  1.9558600000000001e+02  2.3558600000000001e+02  1.2808600000000001e+02  8.0860000000000003e+00  2.1358600000000001e+02  1.2608600000000001e+02  1.3586000000000000e+01  6.2085999999999999e+01  7.4587261916473624e+00  2.9255922573305296e-02  4.3035685238286975e-01  4.8712676184168280e-01  7.2733577297642271e-01  1.8105280826344121e+01  6.5605904724506969e-01  2.7073590627630534e-01  5.7359832553483325e-01  2.3376900068990548e+01  1.7218428189709002e+01  9.6049863883049758e-02  9.5161551697152991e+00  8.0550416959111359e+00  1.3802046664007246e+00  9.1965838648298076e-02  2.5111706505161617e+01  1.1346686180332881e+00  7.6058108157896520e-01  2.0053660234153456e+00  2.9333409418588587e+01  7.0213162620704705e-01  6.2154405965272916e+00  1.6567664701559018e+01  1.9359489848888202e+01  1.7729311201781293e+00  5.8897807586549176e+00  7.2451157578144354e-01  1.1196578727450697e+00  7.1434415343383924e+00  7.2461508231544847e-01  2.0366855335645395e+00  1.9810242190439523e-01  4.5877036702030249e-01  4.8215782340860582e-02  2.4056277300459223e+00  1.7011093257423224e+00  1.1899640142811237e-01  2.4414819498125948e+00  1.2991242963028684e+01  3.5246400474614709e-01  1.7197824965804343e-01  7.2660440902603840e-01  1.9751101124464812e+00  2.1128862109385037e-02  1.2059690277321659e+01  5.0232974918309274e+00  3.2592677014571990e+01  2.7973600204191456e+01  2.0412626392816417e+01  2.8690297612893485e+01  6.8345685305033355e-01  1.4379252825962823e+01  1.5277939434203155e+01  1.1243368548239074e+00  8.6878075675644817e-01  1.0800026765837309e+00  4.2727452977493225e+00  1.1417354488143001e+01  2.2608917087274014e-01  3.2812509231648379e-01  7.7758402789044991e+00  2.3705060953260165e-01  5.6307679758005804e+00  5.4279686803574334e-01  3.8079687295327481e+01  3.6611703127107187e-01  4.0376318293440588e-01  2.1575479369689995e-02  1.3374552133717885e-01  4.8087492412805473e+00  1.3509275352906386e+01  2.2284272084386400e-01  3.0836897682267778e-01  8.5391927940793999e-01  1.0589949936970916e-01  2.4706166191872145e+00  6.2188289481699766e-01  1.5511059611295930e+00  6.9883761139530360e+00  1.0320603063483167e+00  2.7458463479812262e-01  5.2563323341898087e+00  3.9352754556334926e+00  1.2562437910601576e+01  3.7775420685709840e+01  3.2667834634996545e+01  1.9103444709373242e+01  5.8755956324908425e+00  1.6518677410814416e+01  3.5828966038050027e+00  1.0017141717448179e+00  2.0062080762487962e+01  5.4970431445803925e+01  9.1581004240904018e-01  1.4940530972875116e+01  1.6162108463415828e-01  1.0733186460004740e+01  5.0850135214008667e+01  5.5933123282854318e+01  3.5642124791698500e+01  5.4463039911211773e+01  8.7376273027828077e-01  4.5894237084354055e+00  1.5557289221660335e+01  5.2539650434322800e+00  1.7308512206007409e+00  1.3153128269503856e+01  1.1603548967159425e+00  7.6331909737789942e+00  5.5068260950258352e-01  1.0564990198150459e+00  1.7035922192028499e-01  4.0034727094891371e+00  3.8259822861729283e+01  5.2706731024690945e-01  7.2786367429918220e-01  1.7078864448563895e+01  1.5342109966246944e+01  3.4655700814858337e+00  3.2173345514989680e+00  7.3751245659131675e+00  8.1234926926965496e+00  1.2462944499917967e+00  8.9831252482977995e+00  2.2580401711328721e+00  4.8044494388341645e+00  2.7526130542297725e+01  1.9831297040245707e-01  2.0994493470150695e+00  5.6124176612548062e+01  1.4030468558998941e+00  5.1403778154389612e-01  1.3647363481969027e+01  4.7396890046094171e+00  4.2478992783394549e+00  1.7047423285712329e+00  2.8471303432267474e+00  4.9179977859840527e+00  1.5282255965940008e+00  4.5589850170306832e-02  1.9613423370874672e-01  2.1865670910608774e+01  2.6935431108126870e+00  9.9364641079217761e-02  1.8257865242986696e+01  1.2832451778881280e+00  1.0900288244883731e+00  5.3348102044468746e+00  5.5392619823397720e+00  4.9543306493024977e+00  1.3037837114501598e+00  1.8192787158732480e+00  1.1717058164611258e+00  3.3547809318676902e-01  8.1999327562407298e-01  1.2077164367288336e-01  3.1754532401731039e-01  5.2000846101851683e-01  2.9127758186843022e-01  8.4306610485033195e-01  1.8404886828876596e-01  4.2556128710685365e-01  2.1345042871903793e+01  2.9913308365067914e-01  4.7056994877224134e-01  5.6478201712876053e-01  8.1332731528146929e-01  2.7737687802137645e-01  2.0739850000000001e+02  4.3416256501274567e+01  3.5689359807823884e+01  2.3913013218418751e+01  1.4392082587830688e+00  6.1801778611756952e-01  3.9214636546716108e+01  9.9218938240639964e+00  3.3511195771850248e+00  6.4929370949876733e-02  2.7697367214479858e+00  1.3279683517249424e+01  3.6847304443968114e+00  4.0257178225608250e+00  9.0399435757076277e-02  4.8474947926047612e-01  7.0960762189148028e+00  2.1514200677143656e+01  2.8282338837438231e-01  2.0716411461392838e+01  1.4456479954572378e+01  4.6218693569916480e+00  1.7573706858374034e+00  4.6114514663236195e+00  1.6742113631960263e+00  1.5976918052562630e+00  1.3357907461113195e+01  1.3802350000000001e+02  1.6580338842918054e+00  1.1457056878451817e-01  1.4326791406869093e+01  3.5563929621040474e-01  2.6233634862885485e-01  1.2579065513767482e+00  2.8275377481808963e+00  1.7466844726876731e+00  1.3093724217918984e-01  2.9990974502841279e-02  4.2822198938784446e+01  1.8721107405280446e+01  1.9768139021291379e+01  5.5300950467544476e+00  2.1825560106708553e+00  3.3037157889803282e+01  3.2914985553754128e+01  1.7002131640915503e+00  1.4901332570573861e-01  2.2753152814632740e+00  5.3656899093418398e+00  3.6159665804832902e-01  3.1236300347879759e-01  6.4662105671793144e+00  1.8486461480342104e+01  4.8278246047244006e-01  3.2350592837907116e-01  1.9677521222143881e+00  8.4603560327838626e-02  9.1726612956348337e+00  3.7541018727346470e-01  3.2978082224555774e+00  2.0406710332000474e-01  1.8343220855481521e-01  2.9070879759605552e+00  5.3135142762798203e+01  9.0353508740972366e+00  5.7876896160290259e-01  7.8221332579029959e+00  1.2809648156175618e-01  9.1610499669647150e-01  2.7552584741100872e+00  1.9655733116457050e+01  2.6961157836456446e+00  2.4552350000000001e+02  1.1852350000000000e+02  2.3239850000000001e+02  6.2870837470865693e-01  4.5497953956999018e+00  5.9596107055512226e-01  2.2021033892199246e-01  2.5339850000000001e+02  1.2914838260475944e+01  4.3613976786934128e+00  3.7251571610202999e-01  1.9471914847758349e+00  3.8035245700690479e-01  1.9960653548166092e+00  1.0107321098368779e+01  7.1215607436765310e+01  6.2409432932185155e+01  2.5796185573823077e-01  1.8218218387981501e+01  5.8655507549612684e+00  7.0283191149211000e+00  1.1479663206517223e+00  1.3034794871331041e+00  1.0940515003160840e+01  3.3737437052211727e+00  7.4092031231103320e-02  1.7664517942706570e+00  1.7484765659478185e+00  9.4691498478477321e-01  5.2310218252236340e-01  9.5617806359806790e-01  2.0585116168051426e-01  2.4587363005595136e-01  3.1189867486138518e-02  2.9269321006989014e+01  9.9715020950169475e-01  2.0332743035761464e-01  1.0298502903597598e+01  4.6898499999999999e+01  1.1093044486549115e+01  2.8251256768640403e+00  9.2657793513255393e-01  5.3172055279226749e-01  2.8563350687405492e+01  5.3158031054794694e+00  2.9399775968227790e+00  7.2299771170760252e+00  2.6554065994070292e+01  8.8985000000000003e+00  2.1209674252286355e+01  1.8875851085975488e+00  6.6965693450199626e-01  1.4518214498129938e+00  7.0023499999999999e+01  7.6558702049236571e-01  3.0622470243354596e+00  7.7455965166687041e-02  6.6405535972328620e+00  2.0089850000000001e+02  2.6325581765477480e+01  3.5330939391143277e+00  3.7523220576701526e+00  1.8674676624502478e+00  7.0672865562418230e-01  2.1859123651562211e+01  6.0235000000000003e+00  1.1293953858074244e+00  9.5424473672898174e+00  4.3523499999999999e+01  1.2244511758779115e+01  1.1952350000000000e+02  1.2903592022837260e+00  1.4280080889104990e+01  1.9489850000000001e+02  3.7939196817053613e+01  1.6452350000000001e+02  1.0258529989543288e+01  3.5215401817851832e-01  1.3462057821877247e+00  4.3985000000000003e+00  1.9541208340060492e-01  6.9784911473259550e+00  1.7659353474797904e+01  1.4266038598459698e+00  2.2273227792808816e+00  2.3889850000000001e+02  3.3533440804068576e+01  3.2289442894035923e-02  1.6061553606160749e-02  5.7595242676499792e-01  5.7207428286658990e-01  7.3033519275450465e-01  3.2869876110921285e-02  2.2302350000000001e+02  4.8297748632755928e+00  2.0707372939106874e-02  6.1398499999999999e+01  6.5523499999999999e+01  4.7396936200358297e+00  2.9028924931174738e-01  2.7460924832301874e+01  6.4183058131612777e-02  1.3172662492621220e-01  1.4802350000000001e+02  6.3985000000000003e+00  1.0451304584620056e+01  2.2865643301438969e+00  5.5523499999999999e+01  4.2388371052997864e-01  8.7192303370318514e-01  4.2094304278731167e+00  5.8205880469493138e+01  1.0375482847033524e+01  7.2280194849090373e-01  1.9639850000000001e+02  2.7634299647969627e+00  6.5319488654930682e+00  3.4314466797664633e-01  6.1754307954603649e-01  1.6219863599322399e+00  5.9462612579131155e+00  2.0202350000000001e+02  5.2844665513035835e+01  1.4389758804937198e+01  5.3221467222177537e+01  1.8354792585567466e+01  5.5659213947591635e+00  3.8316303432106662e+00  1.3302350000000001e+02  1.0052350000000000e+02  2.0389850000000001e+02  1.0752350000000000e+02  3.4398499999999999e+01  1.3985000000000001e+00  1.5235000000000001e+00  3.0234999999999999e+00  1.9839850000000001e+02  2.3898499999999999e+01  2.1139850000000001e+02  1.8152350000000001e+02  1.8985000000000001e+00  1.9339850000000001e+02  2.2639850000000001e+02  8.8023499999999999e+01  9.7023499999999999e+01  1.5398500000000000e+01  1.5902350000000001e+02  1.9389850000000001e+02  8.0523499999999999e+01  1.6523499999999999e+01  2.4023499999999999e+01  3.3023499999999999e+01  6.9023499999999999e+01  2.1589850000000001e+02  2.8984999999999999e+00  2.8898499999999999e+01  7.4523499999999999e+01  1.0523500000000000e+01  1.1898500000000000e+01  4.0398499999999999e+01  5.3898499999999999e+01  6.7023499999999999e+01  1.8252350000000001e+02  1.9398499999999999e+01  8.4023499999999999e+01  2.2089850000000001e+02  2.4589850000000001e+02  1.2362320898459589e+00  1.7538592897334529e-01  4.4421174452022889e+00  3.5557908611034605e-01  3.5302432339120258e+00  2.8296116991634541e+00  5.4317633146396960e-01  8.0148603614235199e+01  8.1644051053467237e-01  2.7282743494911554e+00  1.4649246975235972e+00  1.7837307078209630e+00  5.4676889467058654e-01  1.9572083860054641e+00  2.6759456062772799e+01  4.6444667554947139e-01  9.5859595820687424e+00  4.9422588001484478e+00  2.1300402407036309e+01  7.7891716709301910e+00  1.1025017744288863e+00  2.3545623845514441e-01  1.0425628876374078e+00  3.0372456539284598e+00  5.2808455892805860e+01  2.3678815909150286e-01  2.8332917184168777e-01  3.7935155645544119e+00  7.7713355974936982e-01  1.1909549734286220e+00  4.1382558989097340e-01  1.4445395845966051e+00  4.8380677117905584e+01  1.4194323413189076e+00  9.7730057028078043e+00  5.3503459548262944e-01  9.9203028243599733e-01  6.8656304287142490e+01  3.5161545162452512e+01  1.6962439899405621e+00  1.8299168904205829e-01  6.6788279509577511e-02  9.0674224939368775e-01  4.0267370669294859e-02  2.1692457470873130e+01  2.1856828067345024e+01  6.7520126263117206e+01  9.7745398005861990e+00  6.4011127564113641e+00  1.6105303931163883e+00  7.7541731149016657e+00  1.5253917027406199e+00  1.3171189079632285e+01  5.1660599113016161e+00  7.7028707032220634e-01  7.9983339977619050e-01  5.7701141977859738e-01  1.3235942557798806e+01  6.1328180540515483e+01  3.5099575136603027e+00  1.7257527693850918e+00  1.5644625225995574e+00  1.9168109343696976e+01  6.5933438251589271e-01  7.6948208589345576e-02  1.6701699956896274e+00  8.6291792151784481e+00  7.6324092570527000e+00  4.0424101125579703e-01  1.7561991363390557e+00  6.4020523740125075e+00  4.4568219687931894e+01  1.2715871016900188e+01  6.7817937743751990e+00  1.6070201652495090e+01  2.3755473156032085e+01  1.4968990269146889e+00  2.6652073183770447e-01  5.1276909994020492e-01  3.4455343074158262e-01  2.5361471913732661e+01  1.3934474469865712e-01  2.3868819158257282e-01  2.1318540917390806e+01  6.4755789739814418e+01  4.9113560095912776e+00  1.2968253111988748e+00  1.2375266684282669e+00  8.6739028682503327e-01  2.3697065787100087e+00  1.9297020732599504e+00  2.0406174289455034e-01  5.2597806791464974e-01  7.0845186454601550e-01  2.0698345200830262e+00  2.2487804305111125e-01  4.4528353400203995e-02  2.6116597924465457e+00  9.4425644849549212e-02  2.0641088666072002e-01  1.4884360918536135e+00  9.3166131220593162e-01  2.0782687769871213e+00  1.2753447887485342e+01  9.0199676515693259e+00  1.9323473988550406e+00  1.0785070444985645e+02  1.6703283035036122e+01  2.1771809430411089e+01  4.1689244088386895e-01  3.3956822422789685e+01  2.6401771353366565e+00  3.4821215616962138e+00  1.1539885914114736e+00  3.7640681856140659e+00  1.1845514457886002e+00  8.8785371188660296e+00  2.3058311553225838e+01  2.3507702755886950e-01  1.1872242845957321e+00  1.6672471050750255e+00  1.1422603659734776e-01  1.2205498225082680e+00  7.6760797745526688e+01  4.3390280023014638e+00  5.8682234181448845e-01  8.2660229540214758e+01  9.3009456250541376e+01  1.5154971731906547e-02  3.2984684756289218e+00  3.5726271792890709e+00  2.3348457749446041e+01  1.0601148556956973e+01  9.9812079942414644e-01  2.2389303426419263e-01  4.2434917507051328e-01  3.4358737622943693e+01  4.0863100056944885e+00  5.3527062305872221e+01  5.9664612591219057e-01  3.5212102059083100e-01  5.1452553180043203e-01  1.7728769135293252e+01  2.1359127986804570e+01  7.0297618144551066e+01  6.1268589912186924e+00  4.5121760430621073e+01  8.9378185625271129e+00  8.4298931080187742e+00  3.4070737632331460e+00  3.7330010995678644e+00  5.1325832364344492e+00  1.1071795089378289e+00  1.6836362624176901e-01  2.3502118344678884e+00  5.6153192222212013e+01  1.1494446027131394e+01  1.1930243074853797e+00  1.7310049526865923e+00  7.9229588296643554e+00  1.3674630934062014e+01  3.1523069278615951e-01  2.0647492891285624e+00  1.1890645063682065e+01  5.6255284193287944e-02  3.4236435973674595e-01  3.7353535255710202e-01  1.9894504097246430e-02  4.9124553902506634e