<?xml version="1.0"?>
<VTKFile type="UnstructuredGrid"  version="0.1"  >
<UnstructuredGrid>
<Piece  NumberOfPoints="3311" NumberOfCells="6266">
<Points>
<DataArray  type="Float64"  NumberOfComponents="3"  format="ascii">0 8 0  0 0 0  8 0 0  8 8 0  5.996053456856544 4.125581039058627 0  6 4 0  5.996053456856544 3.874418960941374 0  5.984229402628955 3.749333532871391 0  5.964574501457378 3.625237370828551 0  5.937166322257262 3.502620225670289 0  5.902113032590307 3.381966011250105 0  5.859552971776503 3.263750894630644 0  5.809654104932038 3.148441416869854 0  5.752613360087726 3.036492651796568 0  5.68865585100403 2.928346410042006 0  5.618033988749895 2.824429495415053 0  5.541026485551579 2.725152020502621 0  5.457937254842823 2.630905788142622 0  5.369094211857376 2.542062745157176 0  5.274847979497379 2.458973514448421 0  5.175570504584946 2.381966011250105 0  5.071653589957993 2.31134414899597 0  4.963507348203431 2.247386639912273 0  4.851558583130144 2.19034589506796 0  4.736249105369355 2.140447028223497 0  4.618033988749895 2.097886967409693 0  4.49737977432971 2.062833677742738 0  4.374762629171449 2.035425498542622 0  4.250666467128609 2.015770597371044 0  4.125581039058626 2.003946543143457 0  4 2 0  3.874418960941374 2.003946543143457 0  3.749333532871391 2.015770597371044 0  3.625237370828551 2.035425498542622 0  3.502620225670291 2.062833677742738 0  3.381966011250105 2.097886967409693 0  3.263750894630644 2.140447028223497 0  3.148441416869856 2.19034589506796 0  3.03649265179657 2.247386639912273 0  2.928346410042007 2.311344148995969 0  2.824429495415053 2.381966011250105 0  2.725152020502621 2.458973514448421 0  2.630905788142623 2.542062745157177 0  2.542062745157176 2.630905788142623 0  2.458973514448421 2.725152020502621 0  2.381966011250104 2.824429495415055 0  2.311344148995969 2.928346410042007 0  2.247386639912273 3.036492651796569 0  2.190345895067961 3.148441416869856 0  2.140447028223497 3.263750894630644 0  2.097886967409693 3.381966011250106 0  2.062833677742738 3.502620225670291 0  2.035425498542623 3.62523737082855 0  2.015770597371044 3.749333532871391 0  2.003946543143457 3.874418960941374 0  2 4 0  2.003946543143457 4.125581039058627 0  2.015770597371044 4.250666467128609 0  2.035425498542622 4.374762629171449 0  2.062833677742738 4.49737977432971 0  2.097886967409693 4.618033988749895 0  2.140447028223497 4.736249105369357 0  2.190345895067961 4.851558583130146 0  2.247386639912273 4.96350734820343 0  2.31134414899597 5.071653589957994 0  2.381966011250105 5.175570504584947 0  2.458973514448422 5.274847979497379 0  2.542062745157177 5.369094211857377 0  2.630905788142623 5.457937254842823 0  2.725152020502621 5.541026485551578 0  2.824429495415054 5.618033988749895 0  2.928346410042006 5.68865585100403 0  3.036492651796569 5.752613360087727 0  3.148441416869855 5.809654104932039 0  3.263750894630645 5.859552971776503 0  3.381966011250106 5.902113032590307 0  3.50262022567029 5.937166322257262 0  3.625237370828551 5.964574501457378 0  3.749333532871391 5.984229402628956 0  3.874418960941373 5.996053456856544 0  4 6 0  4.125581039058627 5.996053456856544 0  4.250666467128609 5.984229402628955 0  4.37476262917145 5.964574501457378 0  4.497379774329709 5.937166322257262 0  4.618033988749895 5.902113032590307 0  4.736249105369356 5.859552971776503 0  4.851558583130146 5.809654104932039 0  4.96350734820343 5.752613360087727 0  5.071653589957993 5.688655851004031 0  5.175570504584947 5.618033988749895 0  5.274847979497379 5.541026485551578 0  5.369094211857377 5.457937254842824 0  5.457937254842824 5.369094211857377 0  5.541026485551578 5.274847979497379 0  5.618033988749895 5.175570504584947 0  5.688655851004031 5.071653589957993 0  5.752613360087727 4.96350734820343 0  5.809654104932039 4.851558583130146 0  5.859552971776503 4.736249105369356 0  5.902113032590307 4.618033988749895 0  5.937166322257262 4.497379774329709 0  5.964574501457378 4.37476262917145 0  5.984229402628956 4.250666467128609 0  4 0 0  4 8 0  0 4 0  8 4 0  0 2 0  2 8 0  6 0 0  2 0 0  6 8 0  0 6 0  8 6 0  8 2 0  6.521298246749463 6.521298246749463 0  1 0 0  0 1 0  1.483805613147755 1.483805613147755 0  1.478701753250537 6.521298246749463 0  6.521298246749463 1.478701753250537 0  3 8 0  0 3 0  8 3 0  0 5 0  5 8 0  5 0 0  3 0 0  8 5 0  6.873734575860524 2.615431780543919 0  1.116982513655503 5.247593072616309 0  6.883017486344498 5.247593072616301 0  5.247593072616301 6.883017486344497 0  1.126098722170601 2.617891572298291 0  2.615431780543918 6.873734575860524 0  2.752406927383699 1.116982513655503 0  5.384568219456082 1.126265424139476 0  8 1 0  1 8 0  0 7 0  7 0 0  8 7 0  7 8 0  7.020499434641315 3.646406833984896 0  0.9797566053390774 3.648465816465237 0  3.715288427949091 7.011933824133993 0  4.353593166015106 0.9795005653586846 0  0.6967635209176272 4.5 0  3.5 0.6967635209176218 0  7.275042869145442 4.47475797999556 0  4.511587833362441 7.305805066533029 0  6.221909358080951 5.748059996166043 0  2.210760254282484 6.169547847869656 0  5.847454471986239 1.9044742386454 0  2.256260253799227 1.778178383200799 0  1.980629682828464 0.8249524138953971 0  0.6577483392967642 1.5 0  6.111193299431891 0.7920397023581334 0  0.6549706477735622 6.5 0  6.5 7.345029352226438 0  1.5 7.345029352226438 0  7.175403142852891 6.018842476908514 0  7.207960297641867 1.88880670056811 0  1.20233119856484 0.7548054172032042 0  7.138369340064689 0.8616306599353107 0  7.199038705435568 6.950962679584875 0  0.7268524757237351 7.273147524276265 0  5.787512723837678 6.360832417372146 0  1.584163534320421 5.803133310871846 0  0 0.5 0  0.5 0 0  1.813082410952285 2.362102895128433 0  4.585782825748341 6.620641716166908 0  3.414352878528616 1.379965389869018 0  1.37996538986902 4.585647121471382 0  5.5 8 0  5.795705687727962 7.325709583536691 0  0 5.5 0  0.6742904164633071 5.795705687727965 0  6.608410641840795 4.622450854667636 0  8 7.5 0  2.5 0 0  8 5.5 0  0.6430017150697597 2.16323374265656 0  8 2.5 0  5.5 0 0  2.5 8 0  2.162575541096604 7.357557400929156 0  6.209066202375347 2.498720159134196 0  8 6.5 0  3.213766170612044 6.557595245863999 0  4.810864017456047 1.461836067072289 0  6.474921798096663 3.108973325505615 0  1.461596867478842 3.191209948990856 0  0.6057536094346159 0.6057536094346163 0  3.5 8 0  3.116533476945463 7.331420182036469 0  7.5 0 0  7.50138895891471 1.352981564798016 0  6.5 0 0  4.925848415861192 0.6541083366372827 0  6.636309068723879 2.066043736464307 0  7.345891663362717 3.074151584138809 0  2.034062939515405 6.739458287989336 0  0.6538386597513111 3.07650783347036 0  1.306229817586613 2.051251581737755 0  1.711425920865481 5.22190430062486 0  5.172422863235413 6.301009428280244 0  2.75 0.5305166887675732 0  7.469483311232427 5.25 0  0.5722092524055858 5.06190966273399 0  5.072435773461397 7.430123991012138 0  6.319527671469182 5.122233284663893 0  2.835488340834966 1.696071607164519 0  5.920435248419656 1.334295501631503 0  4.5 0 0  8 3.5 0  7.432272671858859 2.512886319125838 0  5.571830688303236 0.5764100372080221 0  0 3.5 0  5.289311353655532 1.776472779228421 0  8 0.5 0  7.5 8 0  1.5 0 0  7.25 7.504032729381043 0  6.06696156120921 6.840932928848806 0  1.126750463624113 6.102788617506953 0  4.079942410528958 1.456191250380107 0  6.543808749619893 3.920057589471043 0  1.456853858348016 3.920078412765323 0  2.719154100210118 6.345760317541158 0  6.75 0.4820732229428856 0  1.147555431445879 6.942001202471608 0  0 2.5 0  4.033254072103534 6.555375438181171 0  7.459092130175394 3.96491680499676 0  4.023910705003057 0.5449410641392927 0  0.46324372358657 3.75 0  4.000538644612607 7.464791837989975 0  0 7.5 0  0.5 8 0  6.641367242777847 0.9816996559636945 0  2.060098699240311 5.602794388158723 0  8 1.5 0  1.5 8 0  6.5 8 0  0 6.5 0  0 1.5 0  4.5 8 0  8 4.5 0  3.5 0 0  0 4.5 0  5.71241378857682 5.847235604203799 0  1.980356857777504 1.341494340873432 0  6.73841195435907 5.743461321139284 0  7.001901661066728 1.342234074252575 0  2.271256172523833 0.4319561292819105 0  7.568195995774798 5.728421007950713 0  1.079620717833623 4.213724869256849 0  3.785914285080838 1.07957548172746 0  1.75 0.4068334879001349 0  7.593198924126513 6.25 0  2.644210543189512 7.51442503308679 0  1.759107121904632 1.881466257766474 0  7.598221819062164 0.75 0  7.25 0.4017781809378356 0  7.016697196788522 6.489226510093869 0  0.8135924992537802 1.042303878660207 0  7.590765621254587 6.709933711568556 0  6.972320805074426 4.114496419277549 0  0.6689706016379435 2.619626936075973 0  4.490317171939625 0.4719794785870491 0  7.586130070956817 7.194177964358491 0  1.564887898956812 2.745941764426699 0  7.45216884474369 3.51322113522411 0  7.58575169794429 4.808833363985082 0  3.538045596929494 7.533919544016318 0  4.268777385438645 6.932912710296469 0  6.25 0.3687278481717181 0  6.915054373976157 3.207810438216838 0  7.002360785621788 4.82228450274451 0  0.3972487693887257 4.181902501602563 0  0.9482937176147312 4.850514130935556 0  3.25 0.3483817604588109 0  3.078724571458289 0.822405414577691 0  1.086245288390012 5.675597706514477 0  1.074212327675575 1.667136181084258 0  2.267204536760128 2.246625033644231 0  4.821181984497242 6.992731518467086 0  2.439850702774412 0.8250274309749102 0  7.174972522369596 5.560160665184872 0  5.904966268715267 5.477643303883068 0  6.207512920818998 6.198213208971735 0  2.504889937937569 1.447997919101883 0  0.3997445887406886 1.156770199073539 0  0.3288741696483821 1.75 0  1.637615877582278 1.083042277773219 0  2.524803464880197 5.901811913432696 0  5.794604146187496 2.343782137192302 0  6.836411413561036 7.606548808898578 0  1.826315648259891 7.614255845340183 0  1.090927571027496 7.551079899216545 0  6.140889361672077 7.589220379873516 0  1.066148535748459 6.537245249458406 0  0.410779620126483 6.140889361672079 0  0.4489201007834544 6.909072428972504 0  6.470724483843425 6.932131515022222 0  1.638960019540123 6.929295531772199 0  5.660873205465542 6.931985632892141 0  3.623652679878191 6.609113767281198 0  7.62
[...]
<PointData  Scalars="f_24"> 
<DataArray  type="Float64"  Name="f_24"  format="ascii">1.9760800000000000e+02  5.6080000000000032e+00  6.9608000000000004e+01  2.6160800000000000e+02  9.2621913787001489e+01  8.9608000000000004e+01  8.6594023912187396e+01  8.3591507365430502e+01  8.0611186967991245e+01  7.7662989273969600e+01  7.4756020553225184e+01  7.1898570735661849e+01  6.9098130885338051e+01  6.6361423343903454e+01  6.3694443482780095e+01  6.1102511822460656e+01  5.8590335118132629e+01  5.6162074876048266e+01  5.3821421656748484e+01  5.1571673441084044e+01  4.9415816284181886e+01  4.7356605461827520e+01  4.5396645323437994e+01  4.3538466105666963e+01  4.1784596030004415e+01  4.0137627105331582e+01  3.8600273180638851e+01  3.7175418941947541e+01  3.5866158718448453e+01  3.4675824153169891e+01  3.3607999999999997e+01  3.2666527528231867e+01  3.1855495244390720e+01  3.1179216875204354e+01  3.0642196791363496e+01  3.0249083285333263e+01  3.0004610344094736e+01  2.9913528775584663e+01  2.9980527752183100e+01  3.0210148022499624e+01  3.0606688210822746e+01  3.1174105769125980e+01  3.1915914267030484e+01  3.2835078798563117e+01  3.3933911349307373e+01  3.5213968002462352e+01  3.6675949866715634e+01  3.8319609582499858e+01  4.0143665206425460e+01  4.2145723187237799e+01  4.4322212031780289e+01  4.6668328117853427e+01  4.9177994944673188e+01  5.1843836923367228e+01  5.4657168602482713e+01  5.7608000000000004e+01  6.0685058477296799e+01  6.3875827345540465e+01  6.7166601144902742e+01  7.0542557285679493e+01  7.3987843491775237e+01  7.7485680244966900e+01  8.1018477196672436e+01  8.4567962296264525e+01  8.8115322184699352e+01  9.1641352222539780e+01  9.5126614365181581e+01  9.8551600967717235e+01  1.0189690249948599e+02  1.0514337707560175e+02  1.0827231967081772e+02  1.1126562887069305e+02  1.1410596903639399e+02  1.1677692581232253e+02  1.1926315298936687e+02  1.2155050884966802e+02  1.2362618025971206e+02  1.2547879294515849e+02  1.2709850657058061e+02  1.2847709345734594e+02  1.2960800000000000e+02  1.3048639008228398e+02  1.3110917004463832e+02  1.3147499501190168e+02  1.3158425664898741e+02  1.3143905266966632e+02  1.3104313867527657e+02  1.3040186314240486e+02  1.2952208660764887e+02  1.2841208631002098e+02  1.2708144774417688e+02  1.2554094474755981e+02  1.2380240988920404e+02  1.2187859704520241e+02  1.1978303813400683e+02  1.1752989604253810e+02  1.1513381580076378e+02  1.1260977605766816e+02  1.0997294287558506e+02  1.0723852779339092e+02  1.0442165201322015e+02  1.0153721844179567e+02  9.8599793168220813e+01  9.5623497787603725e+01  2.1608000000000004e+01  2.1360800000000000e+02  5.3608000000000004e+01  1.1760800000000000e+02  1.7608000000000004e+01  2.0160800000000000e+02  4.1608000000000004e+01  9.6080000000000041e+00  2.3360800000000000e+02  1.1360800000000000e+02  1.7760800000000000e+02  8.1608000000000004e+01  2.6191623147649296e-01  6.6080000000000032e+00  8.6080000000000041e+00  1.9726048304160457e-02  2.0130365173239942e-01  8.1173505320006445e-02  2.0660800000000000e+02  3.2608000000000004e+01  9.6608000000000004e+01  8.0608000000000004e+01  2.2260800000000000e+02  3.0608000000000004e+01  1.4608000000000004e+01  1.4460800000000000e+02  4.1796668352763566e-01  4.9392426664656575e-01  7.8220989907987903e-01  1.0684254029048246e+00  1.6140783900972899e-01  8.7427828306351840e-01  1.1862390207180441e-01  1.9809027183443620e-01  7.2608000000000004e+01  1.9860800000000000e+02  1.5260800000000000e+02  5.4608000000000004e+01  2.1660800000000000e+02  2.4660800000000000e+02  1.0874638268755032e+00  5.4396783148286132e-01  1.9178982249068985e+00  3.1238546800055383e-01  2.0129313929002222e+00  5.4201079119829110e-01  3.3545500032313438e+00  6.6158026609691634e+00  1.4847587130922211e+00  1.4556379410374587e+00  7.7855406954861217e-01  4.0278100518144233e-01  1.4645158613583362e-01  4.5525275174155244e-01  7.6741111554120855e-01  4.6110710056783342e+00  8.7670816262896079e+00  7.1298793654577102e+00  2.6603330331913058e+00  1.4496972527249694e+00  1.7167871880632632e-01  1.5190690797964386e+00  4.6179109910606799e+00  8.4105880169446312e+00  8.4055055408321566e-01  4.6828464300270894e-01  6.3580000000000032e+00  5.8580000000000032e+00  7.2984379040503855e-01  3.6356378675416869e+00  8.4528177124664949e-01  1.9127978940528849e+00  2.2785800000000000e+02  7.4350248320557100e+00  9.6358000000000004e+01  3.4530045395009488e+00  2.8870992578596448e+00  2.3835800000000000e+02  1.1858000000000004e+01  1.6035800000000000e+02  7.5262698268866413e-01  8.8358000000000004e+01  3.5858000000000004e+01  2.0385800000000000e+02  7.6741936515278013e+00  1.8025261802964534e+00  1.9635800000000000e+02  3.6148406986911317e+00  1.2441984167572953e+00  2.6066057528967792e+00  1.3789815590304433e+00  5.4784184042742001e-01  2.0985800000000000e+02  7.0297215491593130e+00  6.1858000000000011e+01  5.9431327635780411e+00  4.7858000000000004e+01  1.0562837165236874e+00  1.5093419023231028e-01  3.5226318910710441e+00  4.0319115840540642e-01  1.2203323464665918e+00  5.5789967599751862e-02  3.4795984040550771e+00  5.8521846994170925e+00  8.7631805905482696e-01  9.9692389157574741e+00  4.4694714799080000e+00  1.2485832953142609e+01  4.9565691159147232e+00  1.3929307086700151e+00  1.0020328603370054e-01  2.5858000000000004e+01  1.0635800000000000e+02  4.9069521841482704e+00  1.9597180101277138e+00  4.2358000000000004e+01  2.2236394385214275e+00  7.0358000000000004e+01  2.5385800000000000e+02  7.8580000000000032e+00  2.3263314956870449e+01  6.7192799303894468e-01  4.1945797418835257e-01  1.9129336531582219e+00  4.8481462156864552e+00  3.2214502435209909e+00  3.2595625331649538e+00  4.4878153531805332e+00  1.3244274054349290e+00  2.4358000000000004e+01  6.8565219591790942e+00  7.2866437872566214e+00  1.3852505733142768e+00  4.6831661927130783e+00  1.4096374204361332e+01  1.7435800000000000e+02  1.9785800000000000e+02  4.0112847351317643e-01  6.1157981540700304e+00  7.6358000000000004e+01  1.9985800000000000e+02  2.3985800000000000e+02  1.3235800000000000e+02  1.2358000000000004e+01  2.1785800000000000e+02  1.3035800000000000e+02  1.7858000000000004e+01  6.6358000000000004e+01  7.7259484932998168e+00  3.7560311717662928e-02  4.4343521714844086e-01  5.1763619457991150e-01  1.1989834515703561e+00  1.8577253564276972e+01  7.0563518772638534e-01  3.1885069820933654e-01  1.1229218523083697e+00  2.3923067541552538e+01  1.7585581110781803e+01  1.1063802561817933e-01  1.0130978784235806e+01  8.6788332317334760e+00  1.4104880528755654e+00  1.7946064064292175e-01  2.5645146352350210e+01  1.1824183249276674e+00  9.0483449251071169e-01  2.4020495067479608e+00  2.9895587367745136e+01  7.8747607583449697e-01  6.4743483413538678e+00  1.7091564809181033e+01  1.9761549020345466e+01  1.8203541339925899e+00  6.5104193816773446e+00  7.6133991332135098e-01  1.1582820895647710e+00  7.7065819643656068e+00  7.6799575248446195e-01  2.7633556123389096e+00  2.6896267366544790e-01  4.7923639564574405e-01  6.7916605901852403e-02  2.7677183279199715e+00  1.7400055771922320e+00  1.8397079744422182e-01  2.5076588764344496e+00  1.3477725647471651e+01  3.6459008263556070e-01  2.0169295834347187e-01  1.2883036241268437e+00  2.7648341316895442e+00  3.9606938383509586e-02  1.2563707506661935e+01  5.4335403311764514e+00  3.3172860548607964e+01  2.8581057451206281e+01  2.0862479137299569e+01  2.9220717628480092e+01  7.0483217675627974e-01  1.4914448169626816e+01  1.5725665598887046e+01  1.1450674689548024e+00  8.8814074106731267e-01  1.1018520592463976e+00  4.4202321234868149e+00  1.2067808276218669e+01  2.5758080574538073e-01  3.6542180724795476e-01  8.2133158899077472e+00  2.4619663392018878e-01  6.4621567874896018e+00  1.3222206456257108e+00  3.8833724419663298e+01  3.7524320193098881e-01  4.3560630139720119e-01  4.1420944701045702e-02  1.4711440771003365e-01  4.8953236669010209e+00  1.4342692448962833e+01  2.3596749698282454e-01  3.4633542848344701e-01  8.9910912534836696e-01  1.1501012200430566e-01  2.8676742614210919e+00  6.4446060882124390e-01  1.5908678388188073e+00  7.8891737609903023e+00  1.1211477863519523e+00  3.0234443395496929e-01  6.1820499351013671e+00  4.4463453067936101e+00  1.3235638734388878e+01  3.8616592697743670e+01  3.3521767407202809e+01  1.9775315922356992e+01  6.4147924106496443e+00  1.7648971752294496e+01  4.5710440767500105e+00  1.0339297959606502e+00  2.0949038959340488e+01  5.5942596127297790e+01  9.5085359774769573e-01  1.5652550384271516e+01  1.8363282629023900e-01  1.1238342907073600e+01  5.1809508284434614e+01  5.7231262763800906e+01  3.6326968714286572e+01  5.5563620505814299e+01  9.8902623168659154e-01  4.6779890584514270e+00  1.6143063939235642e+01  5.7489865725631795e+00  1.8149186198385396e+00  1.3757488999703522e+01  1.1827959414311815e+00  8.1483604786312114e+00  5.7926485654602367e-01  1.1045007918141514e+00  1.7746148535321113e-01  5.0283752382964355e+00  3.9081998147339796e+01  1.6695668015148526e+00  1.6442562315531499e+00  1.7655064133399154e+01  1.5859229977606187e+01  3.9954110352872214e+00  3.7420152438452852e+00  7.9059662085860261e+00  8.6103134696768642e+00  1.3193172468906891e+00  1.0097063431563180e+01  2.3418018731807169e+00  5.4074026291257598e+00  2.8621915650161633e+01  2.3619381950295099e-01  2.1676991885290819e+00  5.7299676015600014e+01  1.5411753336493605e+00  1.7661379777403277e+00  1.4228630494353309e+01  4.9045270308418871e+00  4.3264470171041243e+00  1.9009868981070890e+00  2.9291949412141665e+00  5.7727900383853141e+00  1.5639247593822627e+00  6.1973004756302061e-02  2.3777497244359480e-01  2.2778208228605774e+01  2.8203169927572032e+00  2.0702242233554283e-01  1.8909947475053645e+01  1.3354317216353442e+00  1.1337570719573371e+00  5.9444602403781346e+00  6.1567817207695308e+00  6.0555292267648122e+00  1.3493988362110620e+00  1.8589679007472042e+00  1.1979096132853664e+00  3.5813823291739166e-01  8.7314109078211777e-01  1.4870324429843979e-01  3.2836901759812981e-01  5.7746267327431167e-01  3.2562623539245050e-01  9.2328380973086266e-01  5.0706957066311265e-01  5.7997825782232004e-01  2.2084195005568702e+01  3.4564338544169265e-01  5.5634054552216150e-01  6.4669766630212144e-01  8.5279314237348103e-01  2.8519810966869263e-01  2.1167050000000000e+02  4.4204728810262800e+01  3.6469863605971156e+01  2.4717669289931880e+01  1.5173496335429477e+00  6.5971144139479976e-01  4.0044120075739485e+01  1.0657657822028247e+01  3.4233745511195219e+00  1.0524980562289034e-01  3.0896942608198046e+00  1.4102877086405737e+01  3.8266567890262020e+00  4.1493014465268256e+00  9.7044838038894674e-02  5.5613340075488804e-01  7.2541060994724464e+00  2.2254970583024704e+01  3.2315342328423380e-01  2.1796698016678189e+01  1.5189149218007666e+01  4.7199521035844993e+00  1.8342717250374565e+00  4.7142018732706230e+00  1.7792624048563663e+00  1.6914791311824453e+00  1.4187883376426914e+01  1.4229550000000000e+02  1.7180217282165993e+00  1.5053853838454714e-01  1.4892813207422462e+01  3.7546298998352512e-01  2.6906840828388784e-01  1.9438003512436963e+00  2.8891852066862422e+00  1.8341673917786772e+00  1.4962462898369419e-01  3.6138685728925986e-02  4.3702624122523630e+01  1.9554621041967835e+01  2.0540987082014894e+01  6.4430607055974534e+00  3.1041290854389874e+00  3.3949961589108810e+01  3.3900116402036680e+01  2.6206587337487042e+00  2.1509308704625699e-01  2.3414099016263918e+00  5.4802080507325979e+00  4.5328540948730800e-01  3.7960716174358500e-01  7.3479999620527510e+00  1.9395137453236782e+01  4.9587226299128712e-01  3.7841069600379307e-01  2.0273833453710579e+00  9.8451503092377199e-02  1.0091033352033767e+01  4.3312370663380589e-01  3.4985171005945750e+00  2.2283804557077647e-01  2.0390541056026060e-01  2.9649798523988440e+00  5.4170153006694996e+01  9.2145149559250381e+00  6.2731285667597447e-01  8.3644927828859768e+00  1.4276900133831116e-01  1.0029805088776518e+00  3.1429484131274901e+00  2.0642436219851547e+01  2.8257199572174492e+00  2.4979550000000003e+02  1.2279550000000000e+02  2.3667050000000000e+02  7.3067571288245925e-01  4.7489268576928447e+00  6.3016173909676265e-01  4.7280783751373595e-01  2.5767050000000000e+02  1.3628346776753782e+01  4.5065642947642770e+00  3.8639200447470645e-01  1.9921967833415715e+00  3.8798748289897800e-01  2.0338014437306851e+00  1.0294404645461263e+01  7.2448000456208661e+01  6.3505187498257939e+01  2.7262340104495747e-01  1.9180916541252518e+01  5.9881590757578520e+00  7.1808246222648773e+00  1.2056767058527293e+00  1.3667874400670315e+00  1.1873552295715900e+01  3.5521427775031222e+00  1.8436607315711934e-01  1.8058760339675841e+00  1.8746458822916165e+00  1.0898824181950872e+00  5.3571824210768570e-01  9.9467868454368158e-01  2.1473675474484780e-01  2.5412414073646644e-01  6.7133285244109608e-02  3.0265432834417144e+01  1.0506750470810724e+00  2.0910083197178997e-01  1.1296493069232168e+01  5.1170500000000004e+01  1.2034880889973559e+01  3.0553593637911787e+00  1.0034248207422907e+00  5.6932890671527081e-01  2.9626777772677450e+01  5.5069789325790541e+00  3.0574763880076596e+00  7.7048024057150446e+00  2.7517727960963207e+01  1.3170500000000004e+01  2.1712582659267223e+01  1.9636516372521136e+00  9.3201508726278559e-01  1.7801464262540003e+00  7.4295500000000004e+01  9.2932801184965308e-01  3.1382959295877528e+00  9.2190647009955204e-02  6.7763922122241951e+00  2.0517050000000000e+02  2.7252593496916290e+01  3.7605388616731230e+00  4.0166768167927804e+00  2.0115973161827760e+00  8.2272296031760295e-01  2.2601227072115460e+01  1.0295500000000004e+01  1.2429138448978900e+00  1.0589963267139272e+01  4.7795500000000004e+01  1.3331088752857191e+01  1.2379550000000000e+02  1.3306556539039416e+00  1.4552083493314893e+01  1.9917050000000000e+02  3.8875264437533687e+01  1.6879550000000000e+02  1.0509385148716481e+01  6.2794945675953306e-01  2.4298645595353086e+00  8.6705000000000041e+00  3.2472483225837695e-01  7.9974390739421457e+00  1.8702042537944468e+01  1.8818629207466218e+00  2.3061370869425382e+00  2.4317050000000000e+02  3.4649379866577299e+01  5.0983961586271352e-02  2.2843922702388879e-02  5.9702453438349379e-01  5.9043757294820876e-01  7.4892450698828950e-01  3.9145704071967144e-02  2.2729550000000000e+02  5.0964874624138545e+00  3.2065892964847777e-02  6.5670500000000004e+01  6.9795500000000004e+01  5.2323507581478212e+00  3.0414763817648033e-01  2.8613449623625641e+01  6.9997849649724581e-02  1.4298185147511758e-01  1.5229550000000000e+02  1.0670500000000004e+01  1.1642295698438963e+01  2.3733587708635975e+00  5.9795500000000004e+01  4.6672463102271128e-01  9.0264021451266296e-01  4.3668302726451520e+00  5.9449348978585050e+01  1.0598109601690835e+01  7.6823786538610239e-01  2.0067050000000000e+02  3.2031678339574148e+00  7.5546135539151624e+00  7.4490103573138111e-01  1.7146025829934146e+00  2.1254551427633261e+00  6.7481411877950146e+00  2.0629550000000000e+02  5.3914565487639393e+01  1.4678365687846030e+01  5.4371960130460380e+01  1.8724188021007890e+01  6.7391980471729696e+00  4.4058154955848039e+00  1.3729550000000000e+02  1.0479550000000000e+02  2.0817050000000000e+02  1.1179550000000000e+02  3.8670500000000004e+01  5.6705000000000032e+00  5.7955000000000032e+00  7.2955000000000032e+00  2.0267050000000000e+02  2.8170500000000004e+01  2.1567050000000000e+02  1.8579550000000000e+02  6.1705000000000032e+00  1.9767050000000000e+02  2.3067050000000000e+02  9.2295500000000004e+01  1.0129550000000000e+02  1.9670500000000004e+01  1.6329550000000000e+02  1.9817050000000000e+02  8.4795500000000004e+01  2.0795500000000004e+01  2.8295500000000004e+01  3.7295500000000004e+01  7.3295500000000004e+01  2.2017050000000000e+02  7.1705000000000032e+00  3.3170500000000004e+01  7.8795500000000004e+01  1.4795500000000004e+01  1.6170500000000004e+01  4.4670500000000004e+01  5.8170500000000004e+01  7.1295500000000004e+01  1.8679550000000000e+02  2.3670500000000004e+01  8.8295500000000004e+01  2.2517050000000000e+02  2.5017050000000000e+02  1.3377272269983438e+00  1.8663375960550471e-01  4.6058855355047381e+00  4.0296960226817763e-01  3.6046247611128286e+00  2.8950941820733584e+00  5.5455147496140555e-01  8.1639785398090595e+01  8.8814509519375640e-01  2.8172306105282554e+00  1.5151789371474116e+00  1.8424659254957478e+00  5.7858446088304827e-01  1.9928899230952215e+00  2.7850552973469377e+01  7.2216885546430065e-01  9.8478239148357734e+00  5.0693693803821569e+00  2.2310814908529434e+01  8.9333066514368706e+00  1.3999112124401190e+00  2.8247533066496511e-01  1.1696416282363227e+00  3.1035503600220116e+00  5.3864810590304330e+01  4.0075237092102528e-01  3.0399406604590273e-01  3.9545187977729719e+00  8.3326727499710229e-01  1.2844563821564563e+00  4.8150823843737706e-01  2.9748859609489022e+00  4.9459515330909078e+01  1.4638097929939016e+00  9.9475216495797909e+00  5.9503840933282126e-01  1.0307521359067560e+00  7.0163895942302517e+01  3.6258644036387444e+01  1.7477731574086808e+00  3.5028060660500238e-01  1.0702867112548824e-01  9.3150376050206285e-01  8.6178233179216579e-02  2.3342761180971817e+01  2.3276494946150475e+01  6.8991768130170726e+01  1.0098995268062945e+01  7.6909672437813583e+00  1.8994746915071354e+00  7.9295990526471254e+00  1.5820459241241800e+00  1.4302951494340119e+01  6.4433960860923083e+00  2.1567693966086177e+00  9.2256837735882424e-01  5.8811261443359242e-01  1.3513176782426086e+01  6.2603136106243113e+01  3.6977874846898096e+00  2.0174553408728553e+00  1.7391858886275928e+00  2.0584148188257693e+01  6.9575254029958411e-01  9.5824879781215191e-02  1.9242810022765537e+00  9.3051655247262648e+00  8.8786892108302702e+00  5.4366591258361396e-01  1.8396432123453181e+00  6.5766718431557107e+00  4.5826904333371850e+01  1.2995018527071277e+01  6.9901182784502138e+00  1.7345606722323787e+01  2.4185436987931784e+01  1.6670836074156594e+00  2.9941841506499689e-01  5.7932212232029434e-01  4.0108815771817946e-01  2.6963145971973031e+01  1.9342260965216190e-01  2.5670371699456801e-01  2.2657375506358651e+01  6.6076173246112646e+01  5.1257164074982020e+00  1.3715742190609572e+00  1.2945144280166405e+00  9.0825703289253068e-01  2.6575856664709998e+00  1.9724605233568653e+00  2.0969875169379765e-01  5.4398153810925731e-01  7.3414466165557313e-01  2.2564132299859545e+00  2.7900762490922176e-01  5.7992015174972607e-02  2.7822661302119922e+00  1.1044147402889617e-01  2.3785091109292894e-01  1.5908443147574807e+00  9.5328282983296675e-01  2.3025287671469901e+00  1.3910490650265668e+01  9.3790349446184624e+00  1.9907174846801046e+00  1.0969850412763408e+02  1.7716371678339868e+01  2.3037721608453598e+01  4.8141614943732847e-01  3.5098702161572277e+01  2.8693157304764445e+00  3.7488249774201763e+00  1.2012305294951691e+00  3.9344869370978768e+00  1.2380713950196909e+00  1.0099762184809620e+01  2.3543438084557739e+01  2.6808870667062634e-01  1.2183311942846391e+00  1.7180837228238182e+00  1.4747624798616171e-01  1.2714151961442144e+00  7.8452112690815966e+01  5.7866061053699100e+00  6.0017337420982797e-01  8.4285361833184822e+01  9.4683915203710583e+01  2.8650139608374425e-02  3.5841934328344212e+00  3.7764750328895009e+00  2.4642345258288458e+01  1.0957506223818910e+01  1.0894662260184520e+00  2.5105890599687303e-01  4.7466169933141528e-01  3.5752232364293874e+01  4.7392979814581002e+00  5.5200512076070098e+01  6.1283514161030350e-01  3.6751899933088494e-01  5.4498226837013675e-01  1.8053093307598051e+01  2.1758655770213721e+01  7.1608053961587018e+01  6.3450974980625539e+00  4.6811827751307959e+01  9.2948292827331276e+00  9.7560299383511264e+00  3.4769738674988599e+00  3.8079584670277224e+00  5.3045009440179944e+00  1.1929088341858047e+00  1.8200780335236122e-01  3.8150575300510750e+00  5.7637269568520857e+01  1.2892602189665553e+01  1.2685570367734220e+00  1.8296858712201121e+00  8.4829278859397679e+00  1.5033733323354676e+01  4.4867253096441884e-01  3.7535936006942952e+00  1.2251180796929587e+01  1.0754330433202108e-01  3.5664010600295420e-01  3.9212923476457445e-01  2.6923435995530286e-02  5.2165856068803427e