<?xml version="1.0"?>
<VTKFile type="UnstructuredGrid"  version="0.1"  >
<UnstructuredGrid>
<Piece  NumberOfPoints="3311" NumberOfCells="6266">
<Points>
<DataArray  type="Float64"  NumberOfComponents="3"  format="ascii">0 8 0  0 0 0  8 0 0  8 8 0  5.996053456856544 4.125581039058627 0  6 4 0  5.996053456856544 3.874418960941374 0  5.984229402628955 3.749333532871391 0  5.964574501457378 3.625237370828551 0  5.937166322257262 3.502620225670289 0  5.902113032590307 3.381966011250105 0  5.859552971776503 3.263750894630644 0  5.809654104932038 3.148441416869854 0  5.752613360087726 3.036492651796568 0  5.68865585100403 2.928346410042006 0  5.618033988749895 2.824429495415053 0  5.541026485551579 2.725152020502621 0  5.457937254842823 2.630905788142622 0  5.369094211857376 2.542062745157176 0  5.274847979497379 2.458973514448421 0  5.175570504584946 2.381966011250105 0  5.071653589957993 2.31134414899597 0  4.963507348203431 2.247386639912273 0  4.851558583130144 2.19034589506796 0  4.736249105369355 2.140447028223497 0  4.618033988749895 2.097886967409693 0  4.49737977432971 2.062833677742738 0  4.374762629171449 2.035425498542622 0  4.250666467128609 2.015770597371044 0  4.125581039058626 2.003946543143457 0  4 2 0  3.874418960941374 2.003946543143457 0  3.749333532871391 2.015770597371044 0  3.625237370828551 2.035425498542622 0  3.502620225670291 2.062833677742738 0  3.381966011250105 2.097886967409693 0  3.263750894630644 2.140447028223497 0  3.148441416869856 2.19034589506796 0  3.03649265179657 2.247386639912273 0  2.928346410042007 2.311344148995969 0  2.824429495415053 2.381966011250105 0  2.725152020502621 2.458973514448421 0  2.630905788142623 2.542062745157177 0  2.542062745157176 2.630905788142623 0  2.458973514448421 2.725152020502621 0  2.381966011250104 2.824429495415055 0  2.311344148995969 2.928346410042007 0  2.247386639912273 3.036492651796569 0  2.190345895067961 3.148441416869856 0  2.140447028223497 3.263750894630644 0  2.097886967409693 3.381966011250106 0  2.062833677742738 3.502620225670291 0  2.035425498542623 3.62523737082855 0  2.015770597371044 3.749333532871391 0  2.003946543143457 3.874418960941374 0  2 4 0  2.003946543143457 4.125581039058627 0  2.015770597371044 4.250666467128609 0  2.035425498542622 4.374762629171449 0  2.062833677742738 4.49737977432971 0  2.097886967409693 4.618033988749895 0  2.140447028223497 4.736249105369357 0  2.190345895067961 4.851558583130146 0  2.247386639912273 4.96350734820343 0  2.31134414899597 5.071653589957994 0  2.381966011250105 5.175570504584947 0  2.458973514448422 5.274847979497379 0  2.542062745157177 5.369094211857377 0  2.630905788142623 5.457937254842823 0  2.725152020502621 5.541026485551578 0  2.824429495415054 5.618033988749895 0  2.928346410042006 5.68865585100403 0  3.036492651796569 5.752613360087727 0  3.148441416869855 5.809654104932039 0  3.263750894630645 5.859552971776503 0  3.381966011250106 5.902113032590307 0  3.50262022567029 5.937166322257262 0  3.625237370828551 5.964574501457378 0  3.749333532871391 5.984229402628956 0  3.874418960941373 5.996053456856544 0  4 6 0  4.125581039058627 5.996053456856544 0  4.250666467128609 5.984229402628955 0  4.37476262917145 5.964574501457378 0  4.497379774329709 5.937166322257262 0  4.618033988749895 5.902113032590307 0  4.736249105369356 5.859552971776503 0  4.851558583130146 5.809654104932039 0  4.96350734820343 5.752613360087727 0  5.071653589957993 5.688655851004031 0  5.175570504584947 5.618033988749895 0  5.274847979497379 5.541026485551578 0  5.369094211857377 5.457937254842824 0  5.457937254842824 5.369094211857377 0  5.541026485551578 5.274847979497379 0  5.618033988749895 5.175570504584947 0  5.688655851004031 5.071653589957993 0  5.752613360087727 4.96350734820343 0  5.809654104932039 4.851558583130146 0  5.859552971776503 4.736249105369356 0  5.902113032590307 4.618033988749895 0  5.937166322257262 4.497379774329709 0  5.964574501457378 4.37476262917145 0  5.984229402628956 4.250666467128609 0  4 0 0  4 8 0  0 4 0  8 4 0  0 2 0  2 8 0  6 0 0  2 0 0  6 8 0  0 6 0  8 6 0  8 2 0  6.521298246749463 6.521298246749463 0  1 0 0  0 1 0  1.483805613147755 1.483805613147755 0  1.478701753250537 6.521298246749463 0  6.521298246749463 1.478701753250537 0  3 8 0  0 3 0  8 3 0  0 5 0  5 8 0  5 0 0  3 0 0  8 5 0  6.873734575860524 2.615431780543919 0  1.116982513655503 5.247593072616309 0  6.883017486344498 5.247593072616301 0  5.247593072616301 6.883017486344497 0  1.126098722170601 2.617891572298291 0  2.615431780543918 6.873734575860524 0  2.752406927383699 1.116982513655503 0  5.384568219456082 1.126265424139476 0  8 1 0  1 8 0  0 7 0  7 0 0  8 7 0  7 8 0  7.020499434641315 3.646406833984896 0  0.9797566053390774 3.648465816465237 0  3.715288427949091 7.011933824133993 0  4.353593166015106 0.9795005653586846 0  0.6967635209176272 4.5 0  3.5 0.6967635209176218 0  7.275042869145442 4.47475797999556 0  4.511587833362441 7.305805066533029 0  6.221909358080951 5.748059996166043 0  2.210760254282484 6.169547847869656 0  5.847454471986239 1.9044742386454 0  2.256260253799227 1.778178383200799 0  1.980629682828464 0.8249524138953971 0  0.6577483392967642 1.5 0  6.111193299431891 0.7920397023581334 0  0.6549706477735622 6.5 0  6.5 7.345029352226438 0  1.5 7.345029352226438 0  7.175403142852891 6.018842476908514 0  7.207960297641867 1.88880670056811 0  1.20233119856484 0.7548054172032042 0  7.138369340064689 0.8616306599353107 0  7.199038705435568 6.950962679584875 0  0.7268524757237351 7.273147524276265 0  5.787512723837678 6.360832417372146 0  1.584163534320421 5.803133310871846 0  0 0.5 0  0.5 0 0  1.813082410952285 2.362102895128433 0  4.585782825748341 6.620641716166908 0  3.414352878528616 1.379965389869018 0  1.37996538986902 4.585647121471382 0  5.5 8 0  5.795705687727962 7.325709583536691 0  0 5.5 0  0.6742904164633071 5.795705687727965 0  6.608410641840795 4.622450854667636 0  8 7.5 0  2.5 0 0  8 5.5 0  0.6430017150697597 2.16323374265656 0  8 2.5 0  5.5 0 0  2.5 8 0  2.162575541096604 7.357557400929156 0  6.209066202375347 2.498720159134196 0  8 6.5 0  3.213766170612044 6.557595245863999 0  4.810864017456047 1.461836067072289 0  6.474921798096663 3.108973325505615 0  1.461596867478842 3.191209948990856 0  0.6057536094346159 0.6057536094346163 0  3.5 8 0  3.116533476945463 7.331420182036469 0  7.5 0 0  7.50138895891471 1.352981564798016 0  6.5 0 0  4.925848415861192 0.6541083366372827 0  6.636309068723879 2.066043736464307 0  7.345891663362717 3.074151584138809 0  2.034062939515405 6.739458287989336 0  0.6538386597513111 3.07650783347036 0  1.306229817586613 2.051251581737755 0  1.711425920865481 5.22190430062486 0  5.172422863235413 6.301009428280244 0  2.75 0.5305166887675732 0  7.469483311232427 5.25 0  0.5722092524055858 5.06190966273399 0  5.072435773461397 7.430123991012138 0  6.319527671469182 5.122233284663893 0  2.835488340834966 1.696071607164519 0  5.920435248419656 1.334295501631503 0  4.5 0 0  8 3.5 0  7.432272671858859 2.512886319125838 0  5.571830688303236 0.5764100372080221 0  0 3.5 0  5.289311353655532 1.776472779228421 0  8 0.5 0  7.5 8 0  1.5 0 0  7.25 7.504032729381043 0  6.06696156120921 6.840932928848806 0  1.126750463624113 6.102788617506953 0  4.079942410528958 1.456191250380107 0  6.543808749619893 3.920057589471043 0  1.456853858348016 3.920078412765323 0  2.719154100210118 6.345760317541158 0  6.75 0.4820732229428856 0  1.147555431445879 6.942001202471608 0  0 2.5 0  4.033254072103534 6.555375438181171 0  7.459092130175394 3.96491680499676 0  4.023910705003057 0.5449410641392927 0  0.46324372358657 3.75 0  4.000538644612607 7.464791837989975 0  0 7.5 0  0.5 8 0  6.641367242777847 0.9816996559636945 0  2.060098699240311 5.602794388158723 0  8 1.5 0  1.5 8 0  6.5 8 0  0 6.5 0  0 1.5 0  4.5 8 0  8 4.5 0  3.5 0 0  0 4.5 0  5.71241378857682 5.847235604203799 0  1.980356857777504 1.341494340873432 0  6.73841195435907 5.743461321139284 0  7.001901661066728 1.342234074252575 0  2.271256172523833 0.4319561292819105 0  7.568195995774798 5.728421007950713 0  1.079620717833623 4.213724869256849 0  3.785914285080838 1.07957548172746 0  1.75 0.4068334879001349 0  7.593198924126513 6.25 0  2.644210543189512 7.51442503308679 0  1.759107121904632 1.881466257766474 0  7.598221819062164 0.75 0  7.25 0.4017781809378356 0  7.016697196788522 6.489226510093869 0  0.8135924992537802 1.042303878660207 0  7.590765621254587 6.709933711568556 0  6.972320805074426 4.114496419277549 0  0.6689706016379435 2.619626936075973 0  4.490317171939625 0.4719794785870491 0  7.586130070956817 7.194177964358491 0  1.564887898956812 2.745941764426699 0  7.45216884474369 3.51322113522411 0  7.58575169794429 4.808833363985082 0  3.538045596929494 7.533919544016318 0  4.268777385438645 6.932912710296469 0  6.25 0.3687278481717181 0  6.915054373976157 3.207810438216838 0  7.002360785621788 4.82228450274451 0  0.3972487693887257 4.181902501602563 0  0.9482937176147312 4.850514130935556 0  3.25 0.3483817604588109 0  3.078724571458289 0.822405414577691 0  1.086245288390012 5.675597706514477 0  1.074212327675575 1.667136181084258 0  2.267204536760128 2.246625033644231 0  4.821181984497242 6.992731518467086 0  2.439850702774412 0.8250274309749102 0  7.174972522369596 5.560160665184872 0  5.904966268715267 5.477643303883068 0  6.207512920818998 6.198213208971735 0  2.504889937937569 1.447997919101883 0  0.3997445887406886 1.156770199073539 0  0.3288741696483821 1.75 0  1.637615877582278 1.083042277773219 0  2.524803464880197 5.901811913432696 0  5.794604146187496 2.343782137192302 0  6.836411413561036 7.606548808898578 0  1.826315648259891 7.614255845340183 0  1.090927571027496 7.551079899216545 0  6.140889361672077 7.589220379873516 0  1.066148535748459 6.537245249458406 0  0.410779620126483 6.140889361672079 0  0.4489201007834544 6.909072428972504 0  6.470724483843425 6.932131515022222 0  1.638960019540123 6.929295531772199 0  5.660873205465542 6.931985632892141 0  3.623652679878191 6.609113767281198 0  7.62
[...]
<PointData  Scalars="f_24"> 
<DataArray  type="Float64"  Name="f_24"  format="ascii">1.9669600000000000e+02  4.6960000000000015e+00  6.8695999999999998e+01  2.6069600000000003e+02  9.1709913787001483e+01  8.8695999999999998e+01  8.5682023912187390e+01  8.2679507365430496e+01  7.9699186967991238e+01  7.6750989273969594e+01  7.3844020553225178e+01  7.0986570735661843e+01  6.8186130885338045e+01  6.5449423343903462e+01  6.2782443482780103e+01  6.0190511822460657e+01  5.7678335118132630e+01  5.5250074876048267e+01  5.2909421656748485e+01  5.0659673441084045e+01  4.8503816284181887e+01  4.6444605461827521e+01  4.4484645323437995e+01  4.2626466105666964e+01  4.0872596030004416e+01  3.9225627105331583e+01  3.7688273180638852e+01  3.6263418941947542e+01  3.4954158718448454e+01  3.3763824153169892e+01  3.2695999999999998e+01  3.1754527528231865e+01  3.0943495244390711e+01  3.0267216875204351e+01  2.9730196791363493e+01  2.9337083285333261e+01  2.9092610344094734e+01  2.9001528775584660e+01  2.9068527752183098e+01  2.9298148022499621e+01  2.9694688210822743e+01  3.0262105769125977e+01  3.1003914267030478e+01  3.1923078798563111e+01  3.3021911349307373e+01  3.4301968002462353e+01  3.5763949866715635e+01  3.7407609582499859e+01  3.9231665206425461e+01  4.1233723187237800e+01  4.3410212031780290e+01  4.5756328117853428e+01  4.8265994944673189e+01  5.0931836923367229e+01  5.3745168602482714e+01  5.6696000000000005e+01  5.9773058477296800e+01  6.2963827345540459e+01  6.6254601144902736e+01  6.9630557285679487e+01  7.3075843491775231e+01  7.6573680244966894e+01  8.0106477196672429e+01  8.3655962296264519e+01  8.7203322184699346e+01  9.0729352222539774e+01  9.4214614365181575e+01  9.7639600967717229e+01  1.0098490249948598e+02  1.0423137707560174e+02  1.0736031967081772e+02  1.1035362887069304e+02  1.1319396903639398e+02  1.1586492581232253e+02  1.1835115298936687e+02  1.2063850884966801e+02  1.2271418025971205e+02  1.2456679294515848e+02  1.2618650657058060e+02  1.2756509345734592e+02  1.2869600000000000e+02  1.2957439008228397e+02  1.3019717004463831e+02  1.3056299501190168e+02  1.3067225664898743e+02  1.3052705266966632e+02  1.3013113867527656e+02  1.2948986314240486e+02  1.2861008660764887e+02  1.2750008631002099e+02  1.2616944774417686e+02  1.2462894474755981e+02  1.2289040988920405e+02  1.2096659704520241e+02  1.1887103813400682e+02  1.1661789604253809e+02  1.1422181580076378e+02  1.1169777605766815e+02  1.0906094287558506e+02  1.0632652779339091e+02  1.0350965201322015e+02  1.0062521844179567e+02  9.7687793168220807e+01  9.4711497787603719e+01  2.0696000000000002e+01  2.1269600000000000e+02  5.2696000000000005e+01  1.1669600000000000e+02  1.6696000000000002e+01  2.0069600000000000e+02  4.0696000000000005e+01  8.6960000000000015e+00  2.3269600000000000e+02  1.1269600000000000e+02  1.7669600000000000e+02  8.0695999999999998e+01  2.6072002292790020e-01  5.6960000000000015e+00  7.6960000000000015e+00  1.8557018828207209e-02  2.0010835487385800e-01  7.9965786144578041e-02  2.0569600000000000e+02  3.1695999999999998e+01  9.5695999999999998e+01  7.9695999999999998e+01  2.2169600000000000e+02  2.9696000000000002e+01  1.3696000000000002e+01  1.4369600000000000e+02  4.1335895409880280e-01  4.8862146740114415e-01  7.7689354281553546e-01  1.0631644674425216e+00  1.5678576467592822e-01  8.6963949672480179e-01  1.1336272441327035e-01  1.9336652547249925e-01  7.1695999999999998e+01  1.9769600000000000e+02  1.5169600000000000e+02  5.3696000000000005e+01  2.1569600000000000e+02  2.4569600000000003e+02  1.0775980227592517e+00  5.3376226918131009e-01  1.9080784986715231e+00  3.0256258115134127e-01  1.9854261781897020e+00  5.1507751227869980e-01  3.3308211313092779e+00  6.5878355094724625e+00  1.4733718497003809e+00  1.4430607573960248e+00  7.6514934341389140e-01  3.9105179358464737e-01  1.3285383973107906e-01  4.2253548852631773e-01  7.5120299687633130e-01  4.5795452622959347e+00  8.7337381514908756e+00  7.0972922869519355e+00  2.6467487766161093e+00  1.4333093462188859e+00  1.5031459549719289e-01  1.4975188969815165e+00  4.5988940661572268e+00  8.3681516954972910e+00  8.3464308049484026e-01  4.6371247574494928e-01  5.4460000000000015e+00  4.9460000000000015e+00  7.1098767586150224e-01  3.6108479438006893e+00  8.2029327324418611e-01  1.8875749087092804e+00  2.2694600000000000e+02  7.4056882026370259e+00  9.5445999999999998e+01  3.4234810533775639e+00  2.8611802428436373e+00  2.3744600000000000e+02  1.0946000000000002e+01  1.5944600000000000e+02  7.1831650010476322e-01  8.7445999999999998e+01  3.4946000000000005e+01  2.0294600000000000e+02  7.6395850693484588e+00  1.7763279398081881e+00  1.9544600000000000e+02  3.5881338369078746e+00  1.2159377643897877e+00  2.5744145935805416e+00  1.3509032077592344e+00  4.7260922906824282e-01  2.0894600000000000e+02  6.9986294746586211e+00  6.0946000000000005e+01  5.8710517980620462e+00  4.6946000000000005e+01  1.0243309330070953e+00  1.4898506645759665e-01  3.4898827307292355e+00  4.0106190815354609e-01  1.1878988858870572e+00  5.3823847678703352e-02  3.4416735890318892e+00  5.8110763025550849e+00  8.1620708737179115e-01  9.9096482684016713e+00  4.4202078588185314e+00  1.2434785912753222e+01  4.9155993589621776e+00  1.3509663515511079e+00  9.8202826652266054e-02  2.4946000000000002e+01  1.0544600000000000e+02  4.8566323442999364e+00  1.9110773294112957e+00  4.1446000000000005e+01  2.1797700813802492e+00  6.9445999999999998e+01  2.5294600000000000e+02  6.9460000000000015e+00  2.3177405556607379e+01  6.6917144633923353e-01  4.1619807688563282e-01  1.8620584840380336e+00  4.7981827559585213e+00  3.1694839408826763e+00  3.2335570059636378e+00  4.4084758478469421e+00  1.3176971009232770e+00  2.3446000000000002e+01  6.8084934704687727e+00  7.2298306681887547e+00  1.3277778087119561e+00  4.5943554067604104e+00  1.4036066060965606e+01  1.7344600000000000e+02  1.9694600000000000e+02  3.9416861357352179e-01  6.0570858581417051e+00  7.5445999999999998e+01  1.9894600000000000e+02  2.3894600000000000e+02  1.3144600000000000e+02  1.1446000000000002e+01  2.1694600000000000e+02  1.2944600000000000e+02  1.6946000000000002e+01  6.5445999999999998e+01  7.6689010356436746e+00  3.5787464596957357e-02  4.4064320669286944e-01  5.1112294489422216e-01  1.0982946213087301e+00  1.8476495339325012e+01  6.9505151728655357e-01  3.0857900105509400e-01  1.0056505376039067e+00  2.3806469991230308e+01  1.7507200150103337e+01  1.0752369895562357e-01  9.9997243047314317e+00  8.5456642521759001e+00  1.4040230602573402e+00  1.6078197504856390e-01  2.5531265935534659e+01  1.1722245672760578e+00  8.7403882051404680e-01  2.3173642687331348e+00  2.9775571850509465e+01  7.6925647422863686e-01  6.4190759014470684e+00  1.6979720965980825e+01  1.9675716163517510e+01  1.8102301198074784e+00  6.3779234958635680e+00  7.5347768395889825e-01  1.1500364702437105e+00  7.5863609736856379e+00  7.5873471053826724e-01  2.6082237977690998e+00  2.5383520418836913e-01  4.7486724346727893e-01  6.3710812107932793e-02  2.6904180879243875e+00  1.7317018830624757e+00  1.7009985896887264e-01  2.4935312179421429e+00  1.3373869793489449e+01  3.6200136937827021e-01  1.9534936884882986e-01  1.1683903085435259e+00  2.5962413635365302e+00  3.5662180527235805e-02  1.2456108322870188e+01  5.3459603991813403e+00  3.3049001142465457e+01  2.8451375567012107e+01  2.0766443158140248e+01  2.9107481894815532e+01  7.0026890540332443e-01  1.4800192983900796e+01  1.5630083608673630e+01  1.1406418322302294e+00  8.8400771070881379e-01  1.0971875842959413e+00  4.3887461719248781e+00  1.1928947355168804e+01  2.5085787245796309e-01  3.5745958720640481e-01  8.1199222201430121e+00  2.4424411185991746e-01  6.2846692883649791e+00  1.1558268054660548e+00  3.8672750202108467e+01  3.7329491830696149e-01  4.2880833228716664e-01  3.7184272326936066e-02  1.4426037578773879e-01  4.8768414861505853e+00  1.4164771945310333e+01  2.3316557848124866e-01  3.3823023093788951e-01  8.8946185486670226e-01  1.1306515762163900e-01  2.7829091467868938e+00  6.3964064740460680e-01  1.5823793480761661e+00  7.6968686453306603e+00  1.1021291108455578e+00  2.9641818469676606e-01  5.9844248292887867e+00  4.3372405071077402e+00  1.3091921704591586e+01  3.8437016650230838e+01  3.3339467152462142e+01  1.9631882742057087e+01  6.2996829860988885e+00  1.7407672960293134e+01  4.3600912454471432e+00  1.0270523031505288e+00  2.0759688333046125e+01  5.5735055352596852e+01  9.4337238930461242e-01  1.5500546240265548e+01  1.7893369043107565e-01  1.1130500519497101e+01  5.1604698303107803e+01  5.6954131863374108e+01  3.6180766079127338e+01  5.5328665097977805e+01  9.6441941677919951e-01  4.6590818488974497e+00  1.6018010909640903e+01  5.6433078191532120e+00  1.7969716469675487e+00  1.3628468169660914e+01  1.1780051566043321e+00  8.0383804719773693e+00  5.7316302852551404e-01  1.0942532225109720e+00  1.7594527181135047e-01  4.8095758220342040e+00  3.8906477580748792e+01  1.4256624157385500e+00  1.4486218653978082e+00  1.7532055211917470e+01  1.5748833570686802e+01  3.8822989215543418e+00  3.6300047589623623e+00  7.7926404646446281e+00  8.5063854386361228e+00  1.3037281104740717e+00  9.8592564036750687e+00  2.3239201615075813e+00  5.2786822851309250e+00  2.8387983997921022e+01  2.2810689666127254e-01  2.1531289976440680e+00  5.7048726704836106e+01  1.5116872316579015e+00  1.4988356886646845e+00  1.4104539783844306e+01  4.8693368904102394e+00  4.3096783987161604e+00  1.8590919900039289e+00  2.9116755326550541e+00  5.5903062991086427e+00  1.5563035897982520e+00  5.8475477372774982e-02  2.2888537653390817e-01  2.2583396891055848e+01  2.7932529056005078e+00  1.8403930049430486e-01  1.8770738908657311e+01  1.3242907740938028e+00  1.1244218281156479e+00  5.8143102327074159e+00  6.0249516642508203e+00  5.8204418900031927e+00  1.3396607758688477e+00  1.8504949286954608e+00  1.1923155443004159e+00  3.5330067499737117e-01  8.6179492799556878e-01  1.4274031832219738e-01  3.2605834144042678e-01  5.6519716728711966e-01  3.1829337677496311e-01  9.0615868172265945e-01  4.3811009487533070e-01  5.4701283710778226e-01  2.1926398482651479e+01  3.3571421989080208e-01  5.3802996868790909e-01  6.2921005580443778e-01  8.4436785344372522e-01  2.8352840853050160e-01  2.1075850000000000e+02  4.4036403261152962e+01  3.6303239199625118e+01  2.4545888780283008e+01  1.5006677670211757e+00  6.5081054869516586e-01  3.9867039322352483e+01  1.0500584608979699e+01  3.4079493319649656e+00  9.6642072378089749e-02  3.0213887187067181e+00  1.3927139133439780e+01  3.7963579064648716e+00  4.1229184256801501e+00  9.5626156652888511e-02  5.4089413661563135e-01  7.2203693833983396e+00  2.2096828693005154e+01  3.1454364055067002e-01  2.1566075044201533e+01  1.5032736678622600e+01  4.6990130902669209e+00  1.8178546492531746e+00  4.6922663931358679e+00  1.7568357779850583e+00  1.6714571177824742e+00  1.4010697506865560e+01  1.4138350000000000e+02  1.7052153345697330e+00  1.4285998307667586e-01  1.4771977092697581e+01  3.7123096547016227e-01  2.6763122700921799e-01  1.7973735849799664e+00  2.8760245132974620e+00  1.8154912629839681e+00  1.4563518685688978e-01  3.4826252995267461e-02  4.3514668184421993e+01  1.9376679928517724e+01  2.0375997046579535e+01  6.2481579244961383e+00  2.9073887661064655e+00  3.3755093383639078e+01  3.3689807569257255e+01  2.4241591177544812e+00  2.0098617170389921e-01  2.3272998141758379e+00  5.4557603576267057e+00  4.3371140637112132e-01  3.6525166728256298e-01  7.1597527878662870e+00  1.9201150447787366e+01  4.9307781076816259e-01  3.6668945347716697e-01  2.0146530842477226e+00  9.5495200704441979e-02  9.8949763961733233e+00  4.2080284295013753e-01  3.4556691378457991e+00  2.1883076576443186e-01  1.9953472698606450e-01  2.9526209124850520e+00  5.3949195763615911e+01  9.1762664440741588e+00  6.1694955323340828e-01  8.2487081651929799e+00  1.3963666565567581e-01  9.8443405122099581e-01  3.0601831452473696e+00  2.0431791737104401e+01  2.7980516504998718e+00  2.4888350000000000e+02  1.2188350000000000e+02  2.3575850000000000e+02  7.0890740473299552e-01  4.7064156467055875e+00  6.2286047277888423e-01  4.1888252882561111e-01  2.5675850000000003e+02  1.3476024733952890e+01  4.4755736688615091e+00  3.8342965077716878e-01  1.9825889106140540e+00  3.8635753355123220e-01  2.0257454247490285e+00  1.0254465461250510e+01  7.2184905317226381e+01  6.3271262366174987e+01  2.6949340822666740e-01  1.8975396710778931e+01  5.9619842657001572e+00  7.1482672667645222e+00  1.1933565112592550e+00  1.3532722591036090e+00  1.1674364559103022e+01  3.5140575822968620e+00  1.6082442375718334e-01  1.7974596232457682e+00  1.8477108597013667e+00  1.0593612807254698e+00  5.3302492601643703e-01  9.8645945085866293e-01  2.1283983038279908e-01  2.5236279575972725e-01  5.9459971340722499e-02  3.0052779747662861e+01  1.0392483963618797e+00  2.0786830803168516e-01  1.1083438988928158e+01  5.0258500000000005e+01  1.1833814691489694e+01  3.0062083519752743e+00  9.8701930583684105e-01  5.6130015700137081e-01  2.9399754012900281e+01  5.4661661155577930e+00  3.0323923764063925e+00  7.6034352092640187e+00  2.7312002372525399e+01  1.2258500000000002e+01  2.1605220190361194e+01  1.9474127154045096e+00  8.7600604341497568e-01  1.7100545773508644e+00  7.3383499999999998e+01  8.9437206987450202e-01  3.1220607700395102e+00  8.9045040773751874e-02  6.7473929573384028e+00  2.0425850000000000e+02  2.7054692116047338e+01  3.7119832040482121e+00  3.9602415311373886e+00  1.9808280642623473e+00  7.9796013122574916e-01  2.2442800499188369e+01  9.3835000000000015e+00  1.2186795671145321e+00  1.0366336277283771e+01  4.6883500000000005e+01  1.3099122877716939e+01  1.2288349999999998e+02  1.3220530406367046e+00  1.4494015521629649e+01  1.9825850000000000e+02  3.8675429776981751e+01  1.6788350000000000e+02  1.0455831800128946e+01  5.6907177886021532e-01  2.1985216744835769e+00  7.7585000000000024e+00  2.9711873980559439e-01  7.7799108648892554e+00  1.8479445996373851e+01  1.7846727841498540e+00  2.2893115605878025e+00  2.4225850000000000e+02  3.4411145684693416e+01  4.6992996921636811e-02  2.1396001209935678e-02  5.9252599455482602e-01  5.8651732000943613e-01  7.4495600170242549e-01  3.7805920574665218e-02  2.2638350000000000e+02  5.0395488176539986e+00  2.9641040375082868e-02  6.4758499999999998e+01  6.8883499999999998e+01  5.1271767623711026e+00  3.0118910572221136e-01  2.8367405005253158e+01  6.8756489662711959e-02  1.4057905030175577e-01  1.5138350000000000e+02  9.7585000000000015e+00  1.1388039168522567e+01  2.3548296205975929e+00  5.8883500000000005e+01  4.5757881653549848e-01  8.9608261411513368e-01  4.3332280585926952e+00  5.9183889409228343e+01  1.0550582541707810e+01  7.5853806290285752e-01  1.9975850000000000e+02  3.1092912102040589e+00  7.3362918788587583e+00  6.5913282239048288e-01  1.4803988687743115e+00  2.0179730430578142e+00  6.5769533375955085e+00  2.0538350000000000e+02  5.3686159875083561e+01  1.4616752982505940e+01  5.4126349284871914e+01  1.8645328321307119e+01  6.4887232562082255e+00  4.2832366428307749e+00  1.3638350000000000e+02  1.0388350000000000e+02  2.0725850000000000e+02  1.1088350000000000e+02  3.7758500000000005e+01  4.7585000000000015e+00  4.8835000000000015e+00  6.3835000000000015e+00  2.0175850000000000e+02  2.7258500000000002e+01  2.1475850000000000e+02  1.8488350000000000e+02  5.2585000000000015e+00  1.9675850000000000e+02  2.2975850000000000e+02  9.1383499999999998e+01  1.0038350000000000e+02  1.8758500000000002e+01  1.6238350000000000e+02  1.9725850000000000e+02  8.3883499999999998e+01  1.9883500000000002e+01  2.7383500000000002e+01  3.6383500000000005e+01  7.2383499999999998e+01  2.1925850000000000e+02  6.2585000000000015e+00  3.2258500000000005e+01  7.7883499999999998e+01  1.3883500000000002e+01  1.5258500000000002e+01  4.3758500000000005e+01  5.7258500000000005e+01  7.0383499999999998e+01  1.8588350000000000e+02  2.2758500000000002e+01  8.7383499999999998e+01  2.2425850000000000e+02  2.4925850000000003e+02  1.3160597258085096e+00  1.8423253733571793e-01  4.5709238083615213e+00  3.9285252578504509e-01  3.5887455586767016e+00  2.8811147756094453e+00  5.5212307354060441e-01  8.1321443219514705e+01  8.7283737487327751e-01  2.7982399480596607e+00  1.5044505039692939e+00  1.8299269464415806e+00  5.7179237371409597e-01  1.9852725163007792e+00  2.7617622172309421e+01  6.6714951368473030e-01  9.7919202932338205e+00  5.0422334138154090e+00  2.2095108868884843e+01  8.6890531162725217e+00  1.3364193099433388e+00  2.7243754693477873e-01  1.1425124588949811e+00  3.0893954227660849e+00  5.3639296666119243e+01  3.6574877513719473e-01  2.9958245941803691e-01  3.9201473210184457e+00  8.2128367286556347e-01  1.2644954072595027e+00  4.6705913369151564e-01  2.6481828019523439e+00  4.9229201555099323e+01  1.4543359549958685e+00  9.9102654362239804e+00  5.8222860637603879e-01  1.0224856728062566e+00  6.9842050532773996e+01  3.6024431917232789e+01  1.7367725486233521e+00  3.1456724218145254e-01  9.8438025724338796e-02  9.2621759520926350e-01  7.6377037811929963e-02  2.2990449152973227e+01  2.2973419994495373e+01  6.8677597394507615e+01  1.0029729494107235e+01  7.4156050498484367e+00  1.8377899536484370e+00  7.8921485715553992e+00  1.5699512027052174e+00  1.4061339293447437e+01  6.1707063409122709e+00  1.8607787876261250e+00  8.9636652821196972e-01  5.8574269647353749e-01  1.3453991947955092e+01  6.2330954580975423e+01  3.6576889515486801e+00  1.9551817581956927e+00  1.7018853947564403e+00  2.0281847760767199e+01  6.8797787740194227e-01  9.1795028627894709e-02  1.8700325851400192e+00  9.1608538406654976e+00  8.6126294454170811e+00  5.1390104600801267e-01  1.8218293084788126e+00  6.5393935295183958e+00  4.5558196375356580e+01  1.2935425238383065e+01  6.9456445079173470e+00  1.7073329235506428e+01  2.4093646956402633e+01  1.6307520677581486e+00  2.9239531415130521e-01  5.6511417372229755e-01  3.8901894634115325e-01  2.6621215555045310e+01  1.8187789690927889e-01  2.5285770595155777e-01  2.2371556886241923e+01  6.5794293621172571e+01  5.0799540753607682e+00  1.3556165870454562e+00  1.2823485018123801e+00  8.9953267137250259e-01  2.5961283331287661e+00  1.9633323149092092e+00  2.0849534532092456e-01  5.4013810065198153e-01  7.2865968249735313e-01  2.2165818200066769e+00  2.6745187147883864e-01  5.5117750301707423e-02  2.7458445524867843e+00  1.0702236442881086e-01  2.3113899576470442e-01  1.5689818851487902e+00  9.4866700022719497e-01  2.2546530389106128e+00  1.3663481521132789e+01  9.3023801292484194e+00  1.9782564551219450e+00  1.0930403003911974e+02  1.7500094327522213e+01  2.2767470694040032e+01  4.6764142513939921e-01  3.4854930082506314e+01  2.8203985023005345e+00  3.6918882931644994e+00  1.1911451719267392e+00  3.8981054058822315e+00  1.2266457878804695e+00  9.8390512156755978e+00  2.3439871746408233e+01  2.6104126955688056e-01  1.2116903933398169e+00  1.7072309617313801e+00  1.4037788825147110e-01  1.2605562961545176e+00  7.8091045455304751e+01  5.4775725777485560e+00  5.9732315381082313e-01  8.3938423478505811e+01  9.4326446438427254e+01  2.5769148713398134e-02  3.5231959700602120e+00  3.7329569517837902e+00  2.4366122082243450e+01  1.0881429867971981e+01  1.0699655169702298e+00  2.4525945023371640e-01  4.6392082336560486e-01  3.5454744722882033e+01  4.5998960540478917e+00  5.4843258754342450e+01  6.0937905960733540e-01  3.6423179038637904e-01  5.3848026842828955e-01  1.7983855562948708e+01  2.1673363322070209e+01  7.1328298000646754e+01  6.2985072550284693e+00  4.6451026862621987e+01  9.2186135110037526e+00  9.4729220756959034e+00  3.4620513733297740e+00  3.7919563324014609e+00  5.2677994109383617e+00  1.1746070681216303e+00  1.7909500149729107e-01  3.5023376624546643e+00  5.7320444067623455e+01  1.2594119413394216e+01  1.2524320720939515e+00  1.8086191582747535e+00  8.3633839301056909e+00  1.4743587869460733e+01  4.2018494753310492e-01  3.3930538038431837e+00  1.2174212494326177e+01  9.6594176437235335e-02  3.5359247477758382e-01  3.8815975429331634e-01  2.5422877500391038e-02  5.1516589314200747e