<?xml version="1.0"?>
<VTKFile type="UnstructuredGrid"  version="0.1"  >
<UnstructuredGrid>
<Piece  NumberOfPoints="3311" NumberOfCells="6266">
<Points>
<DataArray  type="Float64"  NumberOfComponents="3"  format="ascii">0 8 0  0 0 0  8 0 0  8 8 0  5.996053456856544 4.125581039058627 0  6 4 0  5.996053456856544 3.874418960941374 0  5.984229402628955 3.749333532871391 0  5.964574501457378 3.625237370828551 0  5.937166322257262 3.502620225670289 0  5.902113032590307 3.381966011250105 0  5.859552971776503 3.263750894630644 0  5.809654104932038 3.148441416869854 0  5.752613360087726 3.036492651796568 0  5.68865585100403 2.928346410042006 0  5.618033988749895 2.824429495415053 0  5.541026485551579 2.725152020502621 0  5.457937254842823 2.630905788142622 0  5.369094211857376 2.542062745157176 0  5.274847979497379 2.458973514448421 0  5.175570504584946 2.381966011250105 0  5.071653589957993 2.31134414899597 0  4.963507348203431 2.247386639912273 0  4.851558583130144 2.19034589506796 0  4.736249105369355 2.140447028223497 0  4.618033988749895 2.097886967409693 0  4.49737977432971 2.062833677742738 0  4.374762629171449 2.035425498542622 0  4.250666467128609 2.015770597371044 0  4.125581039058626 2.003946543143457 0  4 2 0  3.874418960941374 2.003946543143457 0  3.749333532871391 2.015770597371044 0  3.625237370828551 2.035425498542622 0  3.502620225670291 2.062833677742738 0  3.381966011250105 2.097886967409693 0  3.263750894630644 2.140447028223497 0  3.148441416869856 2.19034589506796 0  3.03649265179657 2.247386639912273 0  2.928346410042007 2.311344148995969 0  2.824429495415053 2.381966011250105 0  2.725152020502621 2.458973514448421 0  2.630905788142623 2.542062745157177 0  2.542062745157176 2.630905788142623 0  2.458973514448421 2.725152020502621 0  2.381966011250104 2.824429495415055 0  2.311344148995969 2.928346410042007 0  2.247386639912273 3.036492651796569 0  2.190345895067961 3.148441416869856 0  2.140447028223497 3.263750894630644 0  2.097886967409693 3.381966011250106 0  2.062833677742738 3.502620225670291 0  2.035425498542623 3.62523737082855 0  2.015770597371044 3.749333532871391 0  2.003946543143457 3.874418960941374 0  2 4 0  2.003946543143457 4.125581039058627 0  2.015770597371044 4.250666467128609 0  2.035425498542622 4.374762629171449 0  2.062833677742738 4.49737977432971 0  2.097886967409693 4.618033988749895 0  2.140447028223497 4.736249105369357 0  2.190345895067961 4.851558583130146 0  2.247386639912273 4.96350734820343 0  2.31134414899597 5.071653589957994 0  2.381966011250105 5.175570504584947 0  2.458973514448422 5.274847979497379 0  2.542062745157177 5.369094211857377 0  2.630905788142623 5.457937254842823 0  2.725152020502621 5.541026485551578 0  2.824429495415054 5.618033988749895 0  2.928346410042006 5.68865585100403 0  3.036492651796569 5.752613360087727 0  3.148441416869855 5.809654104932039 0  3.263750894630645 5.859552971776503 0  3.381966011250106 5.902113032590307 0  3.50262022567029 5.937166322257262 0  3.625237370828551 5.964574501457378 0  3.749333532871391 5.984229402628956 0  3.874418960941373 5.996053456856544 0  4 6 0  4.125581039058627 5.996053456856544 0  4.250666467128609 5.984229402628955 0  4.37476262917145 5.964574501457378 0  4.497379774329709 5.937166322257262 0  4.618033988749895 5.902113032590307 0  4.736249105369356 5.859552971776503 0  4.851558583130146 5.809654104932039 0  4.96350734820343 5.752613360087727 0  5.071653589957993 5.688655851004031 0  5.175570504584947 5.618033988749895 0  5.274847979497379 5.541026485551578 0  5.369094211857377 5.457937254842824 0  5.457937254842824 5.369094211857377 0  5.541026485551578 5.274847979497379 0  5.618033988749895 5.175570504584947 0  5.688655851004031 5.071653589957993 0  5.752613360087727 4.96350734820343 0  5.809654104932039 4.851558583130146 0  5.859552971776503 4.736249105369356 0  5.902113032590307 4.618033988749895 0  5.937166322257262 4.497379774329709 0  5.964574501457378 4.37476262917145 0  5.984229402628956 4.250666467128609 0  4 0 0  4 8 0  0 4 0  8 4 0  0 2 0  2 8 0  6 0 0  2 0 0  6 8 0  0 6 0  8 6 0  8 2 0  6.521298246749463 6.521298246749463 0  1 0 0  0 1 0  1.483805613147755 1.483805613147755 0  1.478701753250537 6.521298246749463 0  6.521298246749463 1.478701753250537 0  3 8 0  0 3 0  8 3 0  0 5 0  5 8 0  5 0 0  3 0 0  8 5 0  6.873734575860524 2.615431780543919 0  1.116982513655503 5.247593072616309 0  6.883017486344498 5.247593072616301 0  5.247593072616301 6.883017486344497 0  1.126098722170601 2.617891572298291 0  2.615431780543918 6.873734575860524 0  2.752406927383699 1.116982513655503 0  5.384568219456082 1.126265424139476 0  8 1 0  1 8 0  0 7 0  7 0 0  8 7 0  7 8 0  7.020499434641315 3.646406833984896 0  0.9797566053390774 3.648465816465237 0  3.715288427949091 7.011933824133993 0  4.353593166015106 0.9795005653586846 0  0.6967635209176272 4.5 0  3.5 0.6967635209176218 0  7.275042869145442 4.47475797999556 0  4.511587833362441 7.305805066533029 0  6.221909358080951 5.748059996166043 0  2.210760254282484 6.169547847869656 0  5.847454471986239 1.9044742386454 0  2.256260253799227 1.778178383200799 0  1.980629682828464 0.8249524138953971 0  0.6577483392967642 1.5 0  6.111193299431891 0.7920397023581334 0  0.6549706477735622 6.5 0  6.5 7.345029352226438 0  1.5 7.345029352226438 0  7.175403142852891 6.018842476908514 0  7.207960297641867 1.88880670056811 0  1.20233119856484 0.7548054172032042 0  7.138369340064689 0.8616306599353107 0  7.199038705435568 6.950962679584875 0  0.7268524757237351 7.273147524276265 0  5.787512723837678 6.360832417372146 0  1.584163534320421 5.803133310871846 0  0 0.5 0  0.5 0 0  1.813082410952285 2.362102895128433 0  4.585782825748341 6.620641716166908 0  3.414352878528616 1.379965389869018 0  1.37996538986902 4.585647121471382 0  5.5 8 0  5.795705687727962 7.325709583536691 0  0 5.5 0  0.6742904164633071 5.795705687727965 0  6.608410641840795 4.622450854667636 0  8 7.5 0  2.5 0 0  8 5.5 0  0.6430017150697597 2.16323374265656 0  8 2.5 0  5.5 0 0  2.5 8 0  2.162575541096604 7.357557400929156 0  6.209066202375347 2.498720159134196 0  8 6.5 0  3.213766170612044 6.557595245863999 0  4.810864017456047 1.461836067072289 0  6.474921798096663 3.108973325505615 0  1.461596867478842 3.191209948990856 0  0.6057536094346159 0.6057536094346163 0  3.5 8 0  3.116533476945463 7.331420182036469 0  7.5 0 0  7.50138895891471 1.352981564798016 0  6.5 0 0  4.925848415861192 0.6541083366372827 0  6.636309068723879 2.066043736464307 0  7.345891663362717 3.074151584138809 0  2.034062939515405 6.739458287989336 0  0.6538386597513111 3.07650783347036 0  1.306229817586613 2.051251581737755 0  1.711425920865481 5.22190430062486 0  5.172422863235413 6.301009428280244 0  2.75 0.5305166887675732 0  7.469483311232427 5.25 0  0.5722092524055858 5.06190966273399 0  5.072435773461397 7.430123991012138 0  6.319527671469182 5.122233284663893 0  2.835488340834966 1.696071607164519 0  5.920435248419656 1.334295501631503 0  4.5 0 0  8 3.5 0  7.432272671858859 2.512886319125838 0  5.571830688303236 0.5764100372080221 0  0 3.5 0  5.289311353655532 1.776472779228421 0  8 0.5 0  7.5 8 0  1.5 0 0  7.25 7.504032729381043 0  6.06696156120921 6.840932928848806 0  1.126750463624113 6.102788617506953 0  4.079942410528958 1.456191250380107 0  6.543808749619893 3.920057589471043 0  1.456853858348016 3.920078412765323 0  2.719154100210118 6.345760317541158 0  6.75 0.4820732229428856 0  1.147555431445879 6.942001202471608 0  0 2.5 0  4.033254072103534 6.555375438181171 0  7.459092130175394 3.96491680499676 0  4.023910705003057 0.5449410641392927 0  0.46324372358657 3.75 0  4.000538644612607 7.464791837989975 0  0 7.5 0  0.5 8 0  6.641367242777847 0.9816996559636945 0  2.060098699240311 5.602794388158723 0  8 1.5 0  1.5 8 0  6.5 8 0  0 6.5 0  0 1.5 0  4.5 8 0  8 4.5 0  3.5 0 0  0 4.5 0  5.71241378857682 5.847235604203799 0  1.980356857777504 1.341494340873432 0  6.73841195435907 5.743461321139284 0  7.001901661066728 1.342234074252575 0  2.271256172523833 0.4319561292819105 0  7.568195995774798 5.728421007950713 0  1.079620717833623 4.213724869256849 0  3.785914285080838 1.07957548172746 0  1.75 0.4068334879001349 0  7.593198924126513 6.25 0  2.644210543189512 7.51442503308679 0  1.759107121904632 1.881466257766474 0  7.598221819062164 0.75 0  7.25 0.4017781809378356 0  7.016697196788522 6.489226510093869 0  0.8135924992537802 1.042303878660207 0  7.590765621254587 6.709933711568556 0  6.972320805074426 4.114496419277549 0  0.6689706016379435 2.619626936075973 0  4.490317171939625 0.4719794785870491 0  7.586130070956817 7.194177964358491 0  1.564887898956812 2.745941764426699 0  7.45216884474369 3.51322113522411 0  7.58575169794429 4.808833363985082 0  3.538045596929494 7.533919544016318 0  4.268777385438645 6.932912710296469 0  6.25 0.3687278481717181 0  6.915054373976157 3.207810438216838 0  7.002360785621788 4.82228450274451 0  0.3972487693887257 4.181902501602563 0  0.9482937176147312 4.850514130935556 0  3.25 0.3483817604588109 0  3.078724571458289 0.822405414577691 0  1.086245288390012 5.675597706514477 0  1.074212327675575 1.667136181084258 0  2.267204536760128 2.246625033644231 0  4.821181984497242 6.992731518467086 0  2.439850702774412 0.8250274309749102 0  7.174972522369596 5.560160665184872 0  5.904966268715267 5.477643303883068 0  6.207512920818998 6.198213208971735 0  2.504889937937569 1.447997919101883 0  0.3997445887406886 1.156770199073539 0  0.3288741696483821 1.75 0  1.637615877582278 1.083042277773219 0  2.524803464880197 5.901811913432696 0  5.794604146187496 2.343782137192302 0  6.836411413561036 7.606548808898578 0  1.826315648259891 7.614255845340183 0  1.090927571027496 7.551079899216545 0  6.140889361672077 7.589220379873516 0  1.066148535748459 6.537245249458406 0  0.410779620126483 6.140889361672079 0  0.4489201007834544 6.909072428972504 0  6.470724483843425 6.932131515022222 0  1.638960019540123 6.929295531772199 0  5.660873205465542 6.931985632892141 0  3.623652679878191 6.609113767281198 0  7.62
[...]
<PointData  Scalars="f_24"> 
<DataArray  type="Float64"  Name="f_24"  format="ascii">1.9520800000000000e+02  3.2080000000000011e+00  6.7207999999999998e+01  2.5920800000000003e+02  9.0221913787001483e+01  8.7207999999999998e+01  8.4194023912187390e+01  8.1191507365430496e+01  7.8211186967991239e+01  7.5262989273969595e+01  7.2356020553225179e+01  6.9498570735661843e+01  6.6698130885338045e+01  6.3961423343903448e+01  6.1294443482780089e+01  5.8702511822460650e+01  5.6190335118132623e+01  5.3762074876048260e+01  5.1421421656748478e+01  4.9171673441084039e+01  4.7015816284181881e+01  4.4956605461827515e+01  4.2996645323437988e+01  4.1138466105666957e+01  3.9384596030004410e+01  3.7737627105331576e+01  3.6200273180638845e+01  3.4775418941947535e+01  3.3466158718448455e+01  3.2275824153169886e+01  3.1207999999999995e+01  3.0266527528231865e+01  2.9455495244390715e+01  2.8779216875204352e+01  2.8242196791363494e+01  2.7849083285333261e+01  2.7604610344094734e+01  2.7513528775584660e+01  2.7580527752183098e+01  2.7810148022499622e+01  2.8206688210822744e+01  2.8774105769125978e+01  2.9515914267030482e+01  3.0435078798563115e+01  3.1533911349307367e+01  3.2813968002462346e+01  3.4275949866715628e+01  3.5919609582499852e+01  3.7743665206425455e+01  3.9745723187237793e+01  4.1922212031780283e+01  4.4268328117853422e+01  4.6777994944673182e+01  4.9443836923367222e+01  5.2257168602482707e+01  5.5207999999999998e+01  5.8285058477296793e+01  6.1475827345540445e+01  6.4766601144902737e+01  6.8142557285679487e+01  7.1587843491775232e+01  7.5085680244966895e+01  7.8618477196672430e+01  8.2167962296264520e+01  8.5715322184699346e+01  8.9241352222539774e+01  9.2726614365181575e+01  9.6151600967717229e+01  9.9496902499485984e+01  1.0274337707560174e+02  1.0587231967081772e+02  1.0886562887069304e+02  1.1170596903639398e+02  1.1437692581232253e+02  1.1686315298936687e+02  1.1915050884966801e+02  1.2122618025971207e+02  1.2307879294515847e+02  1.2469850657058062e+02  1.2607709345734595e+02  1.2720800000000000e+02  1.2808639008228397e+02  1.2870917004463831e+02  1.2907499501190168e+02  1.2918425664898743e+02  1.2903905266966632e+02  1.2864313867527656e+02  1.2800186314240486e+02  1.2712208660764887e+02  1.2601208631002099e+02  1.2468144774417686e+02  1.2314094474755980e+02  1.2140240988920404e+02  1.1947859704520241e+02  1.1738303813400682e+02  1.1512989604253809e+02  1.1273381580076378e+02  1.1020977605766815e+02  1.0757294287558506e+02  1.0483852779339091e+02  1.0202165201322015e+02  9.9137218441795667e+01  9.6199793168220808e+01  9.3223497787603719e+01  1.9208000000000002e+01  2.1120800000000000e+02  5.1207999999999998e+01  1.1520800000000000e+02  1.5208000000000002e+01  1.9920800000000000e+02  3.9207999999999998e+01  7.2080000000000011e+00  2.3120800000000000e+02  1.1120800000000000e+02  1.7520800000000000e+02  7.9207999999999998e+01  2.5876831424335400e-01  4.2080000000000011e+00  6.2080000000000011e+00  1.6649654946388752e-02  1.9815813368360630e-01  7.7995296963615887e-02  2.0420800000000000e+02  3.0208000000000002e+01  9.4207999999999998e+01  7.8207999999999998e+01  2.2020800000000000e+02  2.8208000000000002e+01  1.2208000000000002e+01  1.4220800000000000e+02  4.0584107976754979e-01  4.7996953179019253e-01  7.6821948785792316e-01  1.0545808358987618e+00  1.4924448549972702e-01  8.6207095059321159e-01  1.0477869770724116e-01  1.8565936035565497e-01  7.0207999999999998e+01  1.9620800000000000e+02  1.5020800000000000e+02  5.2207999999999998e+01  2.1420800000000000e+02  2.4420800000000000e+02  1.0615011844643161e+00  5.1711108858404209e-01  1.8920568400769657e+00  2.8653576576578371e-01  1.9405492489251710e+00  4.7113374140989234e-01  3.2921056034364322e+00  6.5422048938725919e+00  1.4547932831136934e+00  1.4225400893494746e+00  7.4327847445724227e-01  3.7191465887408737e-01  1.1066804296542691e-01  3.6915469064882944e-01  7.2475817168626722e-01  4.5281085230930769e+00  8.6793356399771522e+00  7.0441238957056731e+00  2.6245849895723676e+00  1.4065711829721192e+00  1.1545734167702798e-01  1.4623580723887495e+00  4.5678664518410645e+00  8.2989134868200587e+00  8.2500457095591206e-01  4.5625262390334093e-01  3.9580000000000011e+00  3.4580000000000011e+00  6.8022243634310153e-01  3.5704012261180038e+00  7.7952256597700831e-01  1.8464216168328744e+00  2.2545800000000000e+02  7.3578231756907400e+00  9.3957999999999998e+01  3.3753111549657291e+00  2.8188913236069939e+00  2.3595800000000000e+02  9.4580000000000020e+00  1.5795800000000000e+02  6.6233623904681915e-01  8.5957999999999998e+01  3.3457999999999998e+01  2.0145800000000000e+02  7.5831184352663703e+00  1.7335834421694394e+00  1.9395800000000000e+02  3.5445594834720358e+00  1.1698282789480634e+00  2.5218921757487882e+00  1.3050911609483153e+00  3.4986128421905932e-01  2.0745800000000000e+02  6.9479003004732736e+00  5.9457999999999998e+01  5.7534460122201621e+00  4.5457999999999998e+01  9.7219744411160236e-01  1.4580491714095858e-01  3.4364498901715521e+00  3.9758786826893150e-01  1.1349811344151857e+00  5.0615967807518959e-02  3.3797962592572115e+00  5.7440047076749643e+00  7.1813129146789056e-01  9.8124214227158948e+00  4.3398303717778237e+00  1.2351498636328417e+01  4.8487539660396131e+00  1.2824981899360481e+00  9.4938919240451905e-02  2.3458000000000002e+01  1.0395800000000000e+02  4.7745315529684449e+00  1.8317162187687175e+00  3.9957999999999998e+01  2.1081937618341153e+00  6.7957999999999998e+01  2.5145800000000003e+02  5.4580000000000011e+00  2.3037237587757136e+01  6.6467392277654624e-01  4.1087929707593263e-01  1.7790516291577256e+00  4.7166634269287293e+00  3.0846968155254304e+00  3.1911269352667548e+00  4.2790271812500285e+00  1.3067160777726867e+00  2.1958000000000002e+01  6.7301311994150890e+00  7.1371355791832940e+00  1.2340064559397488e+00  4.4494535981007983e+00  1.3937668563846271e+01  1.7195800000000000e+02  1.9545800000000000e+02  3.8281305261934845e-01  5.9612921121533846e+00  7.3957999999999998e+01  1.9745800000000000e+02  2.3745800000000000e+02  1.2995800000000000e+02  9.9580000000000020e+00  2.1545800000000000e+02  1.2795800000000000e+02  1.5458000000000004e+01  6.3958000000000006e+01  7.5758236047310223e+00  3.2894924557911445e-02  4.3608782121272666e-01  5.0049606382809775e-01  9.3401284561870779e-01  1.8312100340719184e+01  6.7778342341103937e-01  2.9181991622448772e-01  8.1431312940188860e-01  2.3616231882809846e+01  1.7379315424785847e+01  1.0244242913776942e-01  9.7855722592242849e+00  8.3283885486872222e+00  1.3934749144065535e+00  1.3030625749987476e-01  2.5345461044940873e+01  1.1555926468971172e+00  8.2379325041422502e-01  2.1791936172352560e+00  2.9579757059230232e+01  7.3952975581907532e-01  6.3288945521254538e+00  1.6797238906022592e+01  1.9535673081324529e+01  1.7937119914001962e+00  6.1617459979568796e+00  7.4064983605173984e-01  1.1365830913514561e+00  7.3902109362604307e+00  7.4362458946816201e-01  2.3551139950499378e+00  2.2915354346260927e-01  4.6773862675504652e-01  5.6848727496800824e-02  2.5642966437210672e+00  1.7181537505349793e+00  1.4746832777225019e-01  2.4704808277704857e+00  1.3204420768571108e+01  3.5777767932690141e-01  1.8499930177862442e-01  9.7274226732863900e-01  2.3211689523395092e+00  2.9225996656473328e-02  1.2280551759841558e+01  5.2030668259261565e+00  3.2846914742969766e+01  2.8239789334905812e+01  2.0609752876353976e+01  2.8922728855678628e+01  6.9282356793271493e-01  1.4613776628242549e+01  1.5474134045693852e+01  1.1334210565217153e+00  8.7726434538705134e-01  1.0895771251662478e+00  4.3373743562185600e+00  1.1702384799771666e+01  2.3988887604165018e-01  3.4446859661229695e-01  7.9675430747373852e+00  2.4105841797210620e-01  5.9950844213721730e+00  8.8434211888977399e-01  3.8410108057676879e+01  3.7011613976249597e-01  4.1771690900237257e-01  3.0271806874441382e-02  1.3960379738820511e-01  4.8466863491367098e+00  1.3874480597245727e+01  2.2859402724183556e-01  3.2500596125829573e-01  8.7372157144925067e-01  1.0989179468149868e-01  2.6446081702784645e+00  6.3177649983009421e-01  1.5685297052855405e+00  7.3831076671491420e+00  1.0710986402824940e+00  2.8674904117022398e-01  5.6619838671735261e+00  4.1592274128834310e+00  1.2857436024396012e+01  3.8144024151657248e+01  3.3042029894727385e+01  1.9397860184725673e+01  6.1118728723581821e+00  1.7013974931238270e+01  4.0159050470056243e+00  1.0158311306708567e+00  2.0450747837513230e+01  5.5396436193874273e+01  9.3116620710800224e-01  1.5252539478992638e+01  1.7126667929244074e-01  1.0954547150293342e+01  5.1270534649363853e+01  5.6501970920572504e+01  3.5942224937551714e+01  5.4945316800981416e+01  9.2427145561450652e-01  4.6282332438356848e+00  1.5813977019249513e+01  5.4708845899053697e+00  1.7676897438622481e+00  1.3417960499591342e+01  1.1701886129394736e+00  7.8589394084895163e+00  5.6320741438678767e-01  1.0775335041742051e+00  1.7347144971673578e-01  4.4525873007642449e+00  3.8620101919468716e+01  1.0277131547351090e+00  1.1294289521969885e+00  1.7331356445289462e+01  1.5568713117292008e+01  3.6977475780954316e+00  3.4472508099428594e+00  7.6077405666349751e+00  8.3368186511485991e+00  1.2782932036890640e+00  9.4712554634365613e+00  2.2947447371987821e+00  5.0686648817709292e+00  2.8006306039002130e+01  2.1491244360379708e-01  2.1293565809369404e+00  5.6639283092537099e+01  1.4635750652507842e+00  1.0627109012254783e+00  1.3902075993013828e+01  4.8119213981270166e+00  4.2823190739779049e+00  1.7907371399408785e+00  2.8830912344796618e+00  5.2925696718677528e+00  1.5438690499506549e+00  5.2768985325967632e-02  2.1438129899705088e-01  2.2265546814000718e+01  2.7490957107659018e+00  1.4654052275333779e-01  1.8543609142431759e+01  1.3061134386312898e+00  1.1091906407949974e+00  5.6019602201920335e+00  5.8098605194044985e+00  5.4368783405500292e+00  1.3237723616262849e+00  1.8366706058741940e+00  1.1831883791144440e+00  3.4540781733839016e-01  8.4328276765962074e-01  1.3301133383464403e-01  3.2228829086733229e-01  5.4518502593959539e-01  3.0632923903064135e-01  8.7821768339348583e-01  3.2559726595842353e-01  4.9322715067879969e-01  2.1668940997891784e+01  3.1951400241303335e-01  5.0815481701097065e-01  6.0067763867663770e-01  8.3062132940044064e-01  2.8080415930503194e-01  2.0927050000000000e+02  4.3761766838921091e+01  3.6031378326113142e+01  2.4265615317171690e+01  1.4734499848014431e+00  6.3628803955365920e-01  3.9578118093142095e+01  1.0244307261374171e+01  3.3827818691338485e+00  8.2597876031309692e-02  2.9099428342064222e+00  1.3640408789126921e+01  3.7469228875490166e+00  4.0798724442987364e+00  9.3311465970457391e-02  5.1603007407263402e-01  7.1653252676984867e+00  2.1838807714552200e+01  3.0049610030117108e-01  2.1189795457529112e+01  1.4777537272257501e+01  4.6648494369592992e+00  1.7910688940261905e+00  4.6564769255475893e+00  1.7202449657213443e+00  1.6387896222351521e+00  1.3721604772318084e+01  1.3989550000000000e+02  1.6843206923037941e+00  1.3033181389014892e-01  1.4574823431830684e+01  3.6432608336941263e-01  2.6528635229791420e-01  1.5584667558128271e+00  2.8545518030315549e+00  1.7850196844241801e+00  1.3912609707105128e-01  3.2684915377193015e-02  4.3208003232782509e+01  1.9086354953941225e+01  2.0106802778237640e+01  5.9301586500676722e+00  2.5863914029849813e+00  3.3437150522083229e+01  3.3346672105248729e+01  2.1035544811323259e+00  1.7796962561899946e-01  2.3042780925459883e+00  5.4158720162434095e+00  4.0177487497102771e-01  3.4182954474089539e-01  6.8526126615620564e+00  1.8884645333633028e+01  4.8851844135148553e-01  3.4756532093372444e-01  1.9938826582043894e+00  9.0671759966231891e-02  9.5750939945062790e+00  4.0070038115046819e-01  3.3857593038872738e+00  2.1229257239618568e-01  1.9240361168079695e-01  2.9324563263099170e+00  5.3588686577539491e+01  9.1138609773700914e+00  6.0004100551132711e-01  8.0597964205359851e+00  1.3452601269979711e-01  9.5417404136013506e-01  2.9251450766008582e+00  2.0088108633674864e+01  2.7529086237501432e+00  2.4739549999999997e+02  1.2039550000000000e+02  2.3427050000000000e+02  6.7339069143650254e-01  4.6370552498316435e+00  6.1094788036550396e-01  3.3089913043972280e-01  2.5527050000000000e+02  1.3227499295698809e+01  4.4250100160727808e+00  3.7859633684960736e-01  1.9669129077428433e+00  3.8369814251017292e-01  2.0126013937789566e+00  1.0189301529117172e+01  7.1755644827307904e+01  6.2889595045408065e+01  2.6438657783893121e-01  1.8640074882111495e+01  5.9192779966586482e+00  7.0951473709481405e+00  1.1732551411330616e+00  1.3312211743738149e+00  1.1349374041471481e+01  3.4519185795919158e+00  1.2241436420991933e-01  1.7837275846996477e+00  1.8037642438962245e+00  1.0095636353803046e+00  5.2863056818334730e-01  9.7304912221468509e-01  2.0974484852893011e-01  2.4948902237662654e-01  4.6940353919406756e-02  2.9705819448221554e+01  1.0206049136095121e+00  2.0585734791888252e-01  1.0735824436853195e+01  4.8770499999999998e+01  1.1505759315016009e+01  2.9260145958545860e+00  9.6025241309637166e-01  5.4820061799448216e-01  2.9029346825895445e+01  5.3995767825231074e+00  2.9914658311622220e+00  7.4380466255807605e+00  2.6976344833495268e+01  1.0770500000000002e+01  2.1430049846356621e+01  1.9209176323899995e+00  7.8462286661065628e-01  1.5956941922983789e+00  7.1895499999999998e+01  8.3733869086241308e-01  3.0955718255134306e+00  8.3912735862051724e-02  6.7000783835773756e+00  2.0277050000000000e+02  2.6731800389366398e+01  3.6327608152917774e+00  3.8681629071733274e+00  1.9306256006027034e+00  7.5755762060219789e-01  2.2184315038096781e+01  7.8955000000000020e+00  1.1791394296785271e+00  1.0001471188572163e+01  4.5395499999999998e+01  1.2720652239330192e+01  1.2139550000000000e+02  1.3080171979375281e+00  1.4399273041511577e+01  1.9677050000000000e+02  3.8349383751870739e+01  1.6639550000000000e+02  1.0368455284012443e+01  4.7300819912974956e-01  1.8210674936096996e+00  6.2705000000000011e+00  2.5207722054052761e-01  7.4249964185397932e+00  1.8116262165390221e+01  1.6260994033867053e+00  2.2618593860090233e+00  2.4077050000000000e+02  3.4022447808988126e+01  4.0481422995127851e-02  1.9033602985406784e-02  5.8518627167647363e-01  5.8012111784617582e-01  7.3848107202548863e-01  3.5619958026435770e-02  2.2489550000000000e+02  4.9466489235721358e+00  2.5684701939150643e-02  6.3270499999999998e+01  6.7395499999999998e+01  4.9555770850511971e+00  2.9636202645472021e-01  2.7965963785803297e+01  6.6731112841796614e-02  1.3665869049258644e-01  1.4989550000000000e+02  8.2705000000000020e+00  1.0973199567080025e+01  2.3245978491109565e+00  5.7395499999999998e+01  4.4265669816162539e-01  8.8538337136127077e-01  4.2784033935597385e+00  5.8750771164488469e+01  1.0473038391209192e+01  7.4271206937756384e-01  1.9827050000000000e+02  2.9561240872380599e+00  6.9800828300825248e+00  5.1919521115006950e-01  1.0982770192589326e+00  1.8426075119593448e+00  6.2976468451647341e+00  2.0389550000000000e+02  5.3313498086176729e+01  1.4516226989582639e+01  5.3725615799964388e+01  1.8516662495479558e+01  6.0800538604236403e+00  4.0832395672847266e+00  1.3489550000000000e+02  1.0239550000000000e+02  2.0577050000000000e+02  1.0939550000000000e+02  3.6270499999999998e+01  3.2705000000000011e+00  3.3955000000000011e+00  4.8955000000000011e+00  2.0027050000000000e+02  2.5770500000000002e+01  2.1327050000000000e+02  1.8339550000000000e+02  3.7705000000000011e+00  1.9527050000000000e+02  2.2827050000000000e+02  8.9895499999999998e+01  9.8895499999999998e+01  1.7270500000000002e+01  1.6089550000000000e+02  1.9577050000000000e+02  8.2395499999999998e+01  1.8395500000000002e+01  2.5895500000000002e+01  3.4895499999999998e+01  7.0895499999999998e+01  2.1777050000000000e+02  4.7705000000000011e+00  3.0770500000000002e+01  7.6395499999999998e+01  1.2395500000000002e+01  1.3770500000000002e+01  4.2270499999999998e+01  5.5770499999999998e+01  6.8895499999999998e+01  1.8439550000000000e+02  2.1270500000000002e+01  8.5895499999999998e+01  2.2277050000000000e+02  2.4777049999999997e+02  1.2807074870250938e+00  1.8031475363238150e-01  4.5138809903910024e+00  3.7634571678624978e-01  3.5628373862809153e+00  2.8583062703262203e+00  5.4816094490666611e-01  8.0802042822890911e+01  8.4786162066618087e-01  2.7672551829793233e+00  1.4869462182576287e+00  1.8094686121953074e+00  5.6071054728054170e-01  1.9728441157414247e+00  2.7237577180943205e+01  5.7738111393911551e-01  9.7007091211464296e+00  4.9979589420486112e+00  2.1743167435780496e+01  8.2905341904780609e+00  1.2328272585012243e+00  2.5606011032236925e-01  1.0982490773380555e+00  3.0663005251379927e+00  5.3271352895080462e+01  3.0863764517410264e-01  2.9238457491993941e-01  3.8640675431558020e+00  8.0173147991410643e-01  1.2319275008486836e+00  4.4348427857984718e-01  2.1151408056948031e+00  4.8853426447199233e+01  1.4388786403675009e+00  9.8494789828539613e+00  5.6132840155181507e-01  1.0089982856422850e+00  6.9316934338280049e+01  3.5642296354401530e+01  1.7188241869209722e+00  2.5629806864829230e-01  8.4421709543515924e-02  9.1759279920522285e-01  6.0385613791620149e-02  2.2415624265186040e+01  2.2478929283900218e+01  6.8165003036320428e+01  9.9167169155479176e+00  6.9663298913263061e+00  1.7371464339842437e+00  7.8310451550373177e+00  1.5502177098637531e+00  1.3667129913043585e+01  5.7257914935132668e+00  1.3778467413915323e+00  8.5361614276183873e-01  5.8187598822292097e-01  1.3357427218028734e+01  6.1886868934486010e+01  3.5922650290552549e+00  1.8535774917224266e+00  1.6410266942298202e+00  1.9788620747493241e+01  6.7529290109526285e-01  8.5220008325108648e-02  1.7815220098119884e+00  8.9253979350926596e+00  8.1785319334271396e+00  4.6533731633203124e-01  1.7927645179597773e+00  6.4785710177943603e+00  4.5119778128068525e+01  1.2838194083154935e+01  6.8730820402058272e+00  1.6629087020172836e+01  2.3943884273381389e+01  1.5714742925274738e+00  2.8093657055528204e-01  5.4193278390451349e-01  3.6932707514705765e-01  2.6063329085321133e+01  1.6304178664457497e-01  2.4658263530243590e-01  2.1905221242893568e+01  6.5334384759428218e+01  5.0052892176628507e+00  1.3295804505991131e+00  1.2624988327422721e+00  8.8529818678719507e-01  2.4958558418861734e+00  1.9484389221788234e+00  2.0653189281781600e-01  5.3386722901116301e-01  7.1971050597604636e-01  2.1515937300404890e+00  2.4859774746084504e-01  5.0428160245327334e-02  2.6864198730403928e+00  1.0144381718656638e-01  2.2018797601865420e-01  1.5333116052609261e+00  9.4113590981777795e-01  2.1765400086302091e+00  1.3260466626231779e+01  9.1773117462762510e+00  1.9579253016323159e+00  1.0866041442101741e+02  1.7147220755135514e+01  2.2326534991575787e+01  4.4516687496909269e-01  3.4457196690346088e+01  2.7405861826451035e+00  3.5989915977999716e+00  1.1746901148414082e+00  3.8387460654777561e+00  1.2080040078112126e+00  9.4136806870885028e+00  2.3270895089427459e+01  2.4954281952918991e-01  1.2008554023245781e+00  1.6895238252121372e+00  1.2879635394750222e-01  1.2428391435397503e+00  7.7501935755260220e+01  4.9733599800505592e+00  5.9267279421244601e-01  8.3372366162976917e+01  9.3743207926649234e+01  2.1068584621594728e-02  3.4236737939549280e+00  3.6619537668218434e+00  2.3915442163433170e+01  1.0757305287379621e+01  1.0381485706283933e+00  2.3579718030435606e-01  4.4639623626349273e-01  3.4969370150052207e+01  4.3724508040628134e+00  5.4260371755734219e+01  6.0374018897091430e-01  3.5886844947692220e-01  5.2787174220738120e-01  1.7870888716415578e+01  2.1534201959309705e+01  7.0871854064375810e+01  6.2224915953412854e+00  4.5862351728450150e+01  9.0942614623926712e+00  9.0110092471531757e+00  3.4377041460012667e+00  3.7658475864322956e+00  5.2079179622294873e+00  1.1447462919116609e+00  1.7434253531270275e-01  2.9921105100605212e+00  5.6803518250369812e+01  1.2107121199477824e+01  1.2261229191958707e+00  1.7742471529428541e+00  8.1683385284816747e+00  1.4270192655212732e+01  3.7370520614517200e-01  2.8048046616124234e+00  1.2048632632183791e+01  7.8729809872058659e-02  3.4862002383092705e-01  3.8168323352442146e-01  2.2974597850426999e-02  5.0457259346164784e