<?xml version="1.0"?>
<VTKFile type="UnstructuredGrid"  version="0.1"  >
<UnstructuredGrid>
<Piece  NumberOfPoints="3311" NumberOfCells="6266">
<Points>
<DataArray  type="Float64"  NumberOfComponents="3"  format="ascii">0 8 0  0 0 0  8 0 0  8 8 0  5.996053456856544 4.125581039058627 0  6 4 0  5.996053456856544 3.874418960941374 0  5.984229402628955 3.749333532871391 0  5.964574501457378 3.625237370828551 0  5.937166322257262 3.502620225670289 0  5.902113032590307 3.381966011250105 0  5.859552971776503 3.263750894630644 0  5.809654104932038 3.148441416869854 0  5.752613360087726 3.036492651796568 0  5.68865585100403 2.928346410042006 0  5.618033988749895 2.824429495415053 0  5.541026485551579 2.725152020502621 0  5.457937254842823 2.630905788142622 0  5.369094211857376 2.542062745157176 0  5.274847979497379 2.458973514448421 0  5.175570504584946 2.381966011250105 0  5.071653589957993 2.31134414899597 0  4.963507348203431 2.247386639912273 0  4.851558583130144 2.19034589506796 0  4.736249105369355 2.140447028223497 0  4.618033988749895 2.097886967409693 0  4.49737977432971 2.062833677742738 0  4.374762629171449 2.035425498542622 0  4.250666467128609 2.015770597371044 0  4.125581039058626 2.003946543143457 0  4 2 0  3.874418960941374 2.003946543143457 0  3.749333532871391 2.015770597371044 0  3.625237370828551 2.035425498542622 0  3.502620225670291 2.062833677742738 0  3.381966011250105 2.097886967409693 0  3.263750894630644 2.140447028223497 0  3.148441416869856 2.19034589506796 0  3.03649265179657 2.247386639912273 0  2.928346410042007 2.311344148995969 0  2.824429495415053 2.381966011250105 0  2.725152020502621 2.458973514448421 0  2.630905788142623 2.542062745157177 0  2.542062745157176 2.630905788142623 0  2.458973514448421 2.725152020502621 0  2.381966011250104 2.824429495415055 0  2.311344148995969 2.928346410042007 0  2.247386639912273 3.036492651796569 0  2.190345895067961 3.148441416869856 0  2.140447028223497 3.263750894630644 0  2.097886967409693 3.381966011250106 0  2.062833677742738 3.502620225670291 0  2.035425498542623 3.62523737082855 0  2.015770597371044 3.749333532871391 0  2.003946543143457 3.874418960941374 0  2 4 0  2.003946543143457 4.125581039058627 0  2.015770597371044 4.250666467128609 0  2.035425498542622 4.374762629171449 0  2.062833677742738 4.49737977432971 0  2.097886967409693 4.618033988749895 0  2.140447028223497 4.736249105369357 0  2.190345895067961 4.851558583130146 0  2.247386639912273 4.96350734820343 0  2.31134414899597 5.071653589957994 0  2.381966011250105 5.175570504584947 0  2.458973514448422 5.274847979497379 0  2.542062745157177 5.369094211857377 0  2.630905788142623 5.457937254842823 0  2.725152020502621 5.541026485551578 0  2.824429495415054 5.618033988749895 0  2.928346410042006 5.68865585100403 0  3.036492651796569 5.752613360087727 0  3.148441416869855 5.809654104932039 0  3.263750894630645 5.859552971776503 0  3.381966011250106 5.902113032590307 0  3.50262022567029 5.937166322257262 0  3.625237370828551 5.964574501457378 0  3.749333532871391 5.984229402628956 0  3.874418960941373 5.996053456856544 0  4 6 0  4.125581039058627 5.996053456856544 0  4.250666467128609 5.984229402628955 0  4.37476262917145 5.964574501457378 0  4.497379774329709 5.937166322257262 0  4.618033988749895 5.902113032590307 0  4.736249105369356 5.859552971776503 0  4.851558583130146 5.809654104932039 0  4.96350734820343 5.752613360087727 0  5.071653589957993 5.688655851004031 0  5.175570504584947 5.618033988749895 0  5.274847979497379 5.541026485551578 0  5.369094211857377 5.457937254842824 0  5.457937254842824 5.369094211857377 0  5.541026485551578 5.274847979497379 0  5.618033988749895 5.175570504584947 0  5.688655851004031 5.071653589957993 0  5.752613360087727 4.96350734820343 0  5.809654104932039 4.851558583130146 0  5.859552971776503 4.736249105369356 0  5.902113032590307 4.618033988749895 0  5.937166322257262 4.497379774329709 0  5.964574501457378 4.37476262917145 0  5.984229402628956 4.250666467128609 0  4 0 0  4 8 0  0 4 0  8 4 0  0 2 0  2 8 0  6 0 0  2 0 0  6 8 0  0 6 0  8 6 0  8 2 0  6.521298246749463 6.521298246749463 0  1 0 0  0 1 0  1.483805613147755 1.483805613147755 0  1.478701753250537 6.521298246749463 0  6.521298246749463 1.478701753250537 0  3 8 0  0 3 0  8 3 0  0 5 0  5 8 0  5 0 0  3 0 0  8 5 0  6.873734575860524 2.615431780543919 0  1.116982513655503 5.247593072616309 0  6.883017486344498 5.247593072616301 0  5.247593072616301 6.883017486344497 0  1.126098722170601 2.617891572298291 0  2.615431780543918 6.873734575860524 0  2.752406927383699 1.116982513655503 0  5.384568219456082 1.126265424139476 0  8 1 0  1 8 0  0 7 0  7 0 0  8 7 0  7 8 0  7.020499434641315 3.646406833984896 0  0.9797566053390774 3.648465816465237 0  3.715288427949091 7.011933824133993 0  4.353593166015106 0.9795005653586846 0  0.6967635209176272 4.5 0  3.5 0.6967635209176218 0  7.275042869145442 4.47475797999556 0  4.511587833362441 7.305805066533029 0  6.221909358080951 5.748059996166043 0  2.210760254282484 6.169547847869656 0  5.847454471986239 1.9044742386454 0  2.256260253799227 1.778178383200799 0  1.980629682828464 0.8249524138953971 0  0.6577483392967642 1.5 0  6.111193299431891 0.7920397023581334 0  0.6549706477735622 6.5 0  6.5 7.345029352226438 0  1.5 7.345029352226438 0  7.175403142852891 6.018842476908514 0  7.207960297641867 1.88880670056811 0  1.20233119856484 0.7548054172032042 0  7.138369340064689 0.8616306599353107 0  7.199038705435568 6.950962679584875 0  0.7268524757237351 7.273147524276265 0  5.787512723837678 6.360832417372146 0  1.584163534320421 5.803133310871846 0  0 0.5 0  0.5 0 0  1.813082410952285 2.362102895128433 0  4.585782825748341 6.620641716166908 0  3.414352878528616 1.379965389869018 0  1.37996538986902 4.585647121471382 0  5.5 8 0  5.795705687727962 7.325709583536691 0  0 5.5 0  0.6742904164633071 5.795705687727965 0  6.608410641840795 4.622450854667636 0  8 7.5 0  2.5 0 0  8 5.5 0  0.6430017150697597 2.16323374265656 0  8 2.5 0  5.5 0 0  2.5 8 0  2.162575541096604 7.357557400929156 0  6.209066202375347 2.498720159134196 0  8 6.5 0  3.213766170612044 6.557595245863999 0  4.810864017456047 1.461836067072289 0  6.474921798096663 3.108973325505615 0  1.461596867478842 3.191209948990856 0  0.6057536094346159 0.6057536094346163 0  3.5 8 0  3.116533476945463 7.331420182036469 0  7.5 0 0  7.50138895891471 1.352981564798016 0  6.5 0 0  4.925848415861192 0.6541083366372827 0  6.636309068723879 2.066043736464307 0  7.345891663362717 3.074151584138809 0  2.034062939515405 6.739458287989336 0  0.6538386597513111 3.07650783347036 0  1.306229817586613 2.051251581737755 0  1.711425920865481 5.22190430062486 0  5.172422863235413 6.301009428280244 0  2.75 0.5305166887675732 0  7.469483311232427 5.25 0  0.5722092524055858 5.06190966273399 0  5.072435773461397 7.430123991012138 0  6.319527671469182 5.122233284663893 0  2.835488340834966 1.696071607164519 0  5.920435248419656 1.334295501631503 0  4.5 0 0  8 3.5 0  7.432272671858859 2.512886319125838 0  5.571830688303236 0.5764100372080221 0  0 3.5 0  5.289311353655532 1.776472779228421 0  8 0.5 0  7.5 8 0  1.5 0 0  7.25 7.504032729381043 0  6.06696156120921 6.840932928848806 0  1.126750463624113 6.102788617506953 0  4.079942410528958 1.456191250380107 0  6.543808749619893 3.920057589471043 0  1.456853858348016 3.920078412765323 0  2.719154100210118 6.345760317541158 0  6.75 0.4820732229428856 0  1.147555431445879 6.942001202471608 0  0 2.5 0  4.033254072103534 6.555375438181171 0  7.459092130175394 3.96491680499676 0  4.023910705003057 0.5449410641392927 0  0.46324372358657 3.75 0  4.000538644612607 7.464791837989975 0  0 7.5 0  0.5 8 0  6.641367242777847 0.9816996559636945 0  2.060098699240311 5.602794388158723 0  8 1.5 0  1.5 8 0  6.5 8 0  0 6.5 0  0 1.5 0  4.5 8 0  8 4.5 0  3.5 0 0  0 4.5 0  5.71241378857682 5.847235604203799 0  1.980356857777504 1.341494340873432 0  6.73841195435907 5.743461321139284 0  7.001901661066728 1.342234074252575 0  2.271256172523833 0.4319561292819105 0  7.568195995774798 5.728421007950713 0  1.079620717833623 4.213724869256849 0  3.785914285080838 1.07957548172746 0  1.75 0.4068334879001349 0  7.593198924126513 6.25 0  2.644210543189512 7.51442503308679 0  1.759107121904632 1.881466257766474 0  7.598221819062164 0.75 0  7.25 0.4017781809378356 0  7.016697196788522 6.489226510093869 0  0.8135924992537802 1.042303878660207 0  7.590765621254587 6.709933711568556 0  6.972320805074426 4.114496419277549 0  0.6689706016379435 2.619626936075973 0  4.490317171939625 0.4719794785870491 0  7.586130070956817 7.194177964358491 0  1.564887898956812 2.745941764426699 0  7.45216884474369 3.51322113522411 0  7.58575169794429 4.808833363985082 0  3.538045596929494 7.533919544016318 0  4.268777385438645 6.932912710296469 0  6.25 0.3687278481717181 0  6.915054373976157 3.207810438216838 0  7.002360785621788 4.82228450274451 0  0.3972487693887257 4.181902501602563 0  0.9482937176147312 4.850514130935556 0  3.25 0.3483817604588109 0  3.078724571458289 0.822405414577691 0  1.086245288390012 5.675597706514477 0  1.074212327675575 1.667136181084258 0  2.267204536760128 2.246625033644231 0  4.821181984497242 6.992731518467086 0  2.439850702774412 0.8250274309749102 0  7.174972522369596 5.560160665184872 0  5.904966268715267 5.477643303883068 0  6.207512920818998 6.198213208971735 0  2.504889937937569 1.447997919101883 0  0.3997445887406886 1.156770199073539 0  0.3288741696483821 1.75 0  1.637615877582278 1.083042277773219 0  2.524803464880197 5.901811913432696 0  5.794604146187496 2.343782137192302 0  6.836411413561036 7.606548808898578 0  1.826315648259891 7.614255845340183 0  1.090927571027496 7.551079899216545 0  6.140889361672077 7.589220379873516 0  1.066148535748459 6.537245249458406 0  0.410779620126483 6.140889361672079 0  0.4489201007834544 6.909072428972504 0  6.470724483843425 6.932131515022222 0  1.638960019540123 6.929295531772199 0  5.660873205465542 6.931985632892141 0  3.623652679878191 6.609113767281198 0  7.62
[...]
<PointData  Scalars="f_24"> 
<DataArray  type="Float64"  Name="f_24"  format="ascii">1.9472800000000001e+02  2.7280000000000006e+00  6.6727999999999994e+01  2.5872800000000001e+02  8.9741913787001479e+01  8.6727999999999994e+01  8.3714023912187386e+01  8.0711507365430492e+01  7.7731186967991235e+01  7.4782989273969591e+01  7.1876020553225175e+01  6.9018570735661839e+01  6.6218130885338041e+01  6.3481423343903451e+01  6.0814443482780092e+01  5.8222511822460653e+01  5.5710335118132626e+01  5.3282074876048263e+01  5.0941421656748481e+01  4.8691673441084042e+01  4.6535816284181884e+01  4.4476605461827518e+01  4.2516645323437992e+01  4.0658466105666960e+01  3.8904596030004413e+01  3.7257627105331579e+01  3.5720273180638848e+01  3.4295418941947538e+01  3.2986158718448451e+01  3.1795824153169892e+01  3.0727999999999998e+01  2.9786527528231865e+01  2.8975495244390714e+01  2.8299216875204351e+01  2.7762196791363493e+01  2.7369083285333261e+01  2.7124610344094734e+01  2.7033528775584660e+01  2.7100527752183098e+01  2.7330148022499621e+01  2.7726688210822743e+01  2.8294105769125977e+01  2.9035914267030481e+01  2.9955078798563115e+01  3.1053911349307374e+01  3.2333968002462349e+01  3.3795949866715631e+01  3.5439609582499855e+01  3.7263665206425458e+01  3.9265723187237796e+01  4.1442212031780286e+01  4.3788328117853425e+01  4.6297994944673185e+01  4.8963836923367225e+01  5.1777168602482710e+01  5.4728000000000002e+01  5.7805058477296797e+01  6.0995827345540455e+01  6.4286601144902733e+01  6.7662557285679483e+01  7.1107843491775228e+01  7.4605680244966891e+01  7.8138477196672426e+01  8.1687962296264516e+01  8.5235322184699342e+01  8.8761352222539770e+01  9.2246614365181571e+01  9.5671600967717225e+01  9.9016902499485980e+01  1.0226337707560174e+02  1.0539231967081771e+02  1.0838562887069304e+02  1.1122596903639398e+02  1.1389692581232252e+02  1.1638315298936686e+02  1.1867050884966801e+02  1.2074618025971206e+02  1.2259879294515848e+02  1.2421850657058060e+02  1.2559709345734593e+02  1.2672799999999998e+02  1.2760639008228395e+02  1.2822917004463832e+02  1.2859499501190169e+02  1.2870425664898741e+02  1.2855905266966633e+02  1.2816313867527657e+02  1.2752186314240484e+02  1.2664208660764888e+02  1.2553208631002097e+02  1.2420144774417686e+02  1.2266094474755981e+02  1.2092240988920403e+02  1.1899859704520240e+02  1.1690303813400682e+02  1.1464989604253809e+02  1.1225381580076377e+02  1.0972977605766815e+02  1.0709294287558505e+02  1.0435852779339091e+02  1.0154165201322014e+02  9.8657218441795663e+01  9.5719793168220804e+01  9.2743497787603715e+01  1.8728000000000002e+01  2.1072800000000001e+02  5.0728000000000002e+01  1.1472799999999999e+02  1.4728000000000002e+01  1.9872800000000001e+02  3.8728000000000002e+01  6.7280000000000006e+00  2.3072800000000001e+02  1.1072799999999999e+02  1.7472800000000001e+02  7.8727999999999994e+01  2.5813873079672628e-01  3.7280000000000006e+00  5.7280000000000006e+00  1.6034376274834412e-02  1.9752903007384770e-01  7.7359655292337723e-02  2.0372800000000001e+02  2.9728000000000002e+01  9.3727999999999994e+01  7.7727999999999994e+01  2.1972800000000001e+02  2.7728000000000002e+01  1.1728000000000002e+01  1.4172800000000001e+02  4.0341595901553273e-01  4.7717858481891806e-01  7.6542140561353211e-01  1.0518119224975491e+00  1.4681181479772668e-01  8.5962948409915063e-01  1.0200965683432853e-01  1.8317317805989874e-01  6.9727999999999994e+01  1.9572800000000001e+02  1.4972800000000001e+02  5.1728000000000002e+01  2.1372800000000001e+02  2.4372800000000001e+02  1.0563086559820782e+00  5.1173974000427846e-01  1.8868885631109797e+00  2.8136582531882959e-01  1.9260728201301605e+00  4.5695833145221287e-01  3.2796167234774511e+00  6.5274853404532776e+00  1.4488001971179876e+00  1.4159205190118771e+00  7.3622335543896766e-01  3.6574138961261649e-01  1.0351133433134560e-01  3.5193507843028476e-01  7.1622758291527922e-01  4.5115160265760261e+00  8.6617864427146642e+00  7.0269728017552708e+00  2.6174353808485815e+00  1.3979459690215488e+00  1.0421306625116830e-01  1.4510158709072121e+00  4.5578575439971400e+00  8.2765785807951477e+00  8.2189537433045123e-01  4.5384622008346770e-01  3.4780000000000006e+00  2.9780000000000006e+00  6.7029816553071409e-01  3.5573538978332677e+00  7.6637072492308034e-01  1.8331463613888730e+00  2.2497800000000001e+02  7.3423828444177497e+00  9.3477999999999994e+01  3.3597724780586846e+00  2.8052497367564646e+00  2.3547800000000001e+02  8.9780000000000015e+00  1.5747800000000001e+02  6.4427809031845007e-01  8.5477999999999994e+01  3.2978000000000002e+01  2.0097800000000001e+02  7.5649033920140871e+00  1.7197948945440371e+00  1.9347800000000001e+02  3.5305032404282173e+00  1.1549542513862179e+00  2.5049494603191911e+00  1.2903130813318893e+00  3.1026517297738720e-01  2.0697800000000001e+02  6.9315360507360637e+00  5.8978000000000002e+01  5.7155086619485846e+00  4.4978000000000002e+01  9.5538018962918525e-01  1.4477906252268830e-01  3.4192134899916531e+00  3.9646721024163672e-01  1.1179108920049046e+00  4.9581167849072391e-02  3.3598358302976421e+00  5.7223687093265410e+00  6.8649393795050329e-01  9.7810579241075626e+00  4.3139021501517867e+00  1.2324631772965578e+01  4.8271909360645875e+00  1.2604116861892551e+00  9.3886045881802133e-02  2.2978000000000002e+01  1.0347799999999999e+02  4.7480474267324775e+00  1.8061158604969183e+00  3.9478000000000002e+01  2.0851046264966531e+00  6.7477999999999994e+01  2.5097799999999998e+02  4.9780000000000006e+00  2.2992022113934457e+01  6.6322310872406620e-01  4.0916356165344864e-01  1.7522752243576263e+00  4.6903668691771836e+00  3.0573461299263189e+00  3.1774398156871140e+00  4.2372695468639279e+00  1.3031738122402379e+00  2.1478000000000002e+01  6.7048530474622838e+00  7.1072339375686306e+00  1.2037576324648425e+00  4.4027110791783395e+00  1.3905927435743267e+01  1.7147800000000001e+02  1.9497800000000001e+02  3.7914996844058296e-01  5.9303909037700553e+00  7.3477999999999994e+01  1.9697800000000001e+02  2.3697800000000001e+02  1.2947800000000001e+02  9.4780000000000015e+00  2.1497800000000001e+02  1.2747799999999999e+02  1.4978000000000002e+01  6.3478000000000009e+01  7.5457986270172626e+00  3.1961847125961146e-02  4.3461834202558391e-01  4.9706803767773478e-01  8.8101872442837836e-01  1.8259069696007632e+01  6.7221307054797064e-01  2.8641375982751771e-01  7.5259138482059207e-01  2.3554864751061302e+01  1.7338062287586663e+01  1.0080330984168749e-01  9.7164909542219853e+00  8.2582996120779697e+00  1.3900722867127513e+00  1.2047538087126536e-01  2.5285523983459012e+01  1.1502275112910070e+00  8.0758500199492811e-01  2.1346224393327158e+00  2.9516590997527231e+01  7.2994049181599119e-01  6.2998037942797733e+00  1.6738373725390908e+01  1.9490497893520349e+01  1.7883835628817168e+00  6.0920113212127891e+00  7.3651182059781750e-01  1.1322432917087926e+00  7.3269367306393960e+00  7.3875035686490187e-01  2.2734656715921431e+00  2.2119171742204161e-01  4.6543907297690695e-01  5.4635151815790504e-02  2.5236123068812870e+00  1.7137833852035282e+00  1.4016783383785586e-01  2.4630452180376925e+00  1.3149759792791000e+01  3.5641519866516952e-01  1.8166057046565495e-01  9.0962999596899763e-01  2.2324359164695022e+00  2.7149808311066070e-02  1.2223920610477480e+01  5.1569721248760976e+00  3.2781725581842124e+01  2.8171535711645724e+01  2.0559207624164856e+01  2.8863131101118338e+01  6.9042184616800151e-01  1.4553642319965695e+01  1.5423827735055209e+01  1.1310917740350981e+00  8.7508906625099936e-01  1.0871221383502181e+00  4.3208028027649092e+00  1.1629300104482263e+01  2.3635049010090392e-01  3.4027795448516540e-01  7.9183885117033119e+00  2.4003077478248966e-01  5.9016699481486876e+00  7.9676641354258659e-01  3.8325384785279617e+01  3.6909072732879750e-01  4.1413903052340673e-01  2.8041979309120505e-02  1.3810167532383932e-01  4.8369588855838463e+00  1.3780838226902302e+01  2.2711933329363762e-01  3.2074006781326547e-01  8.6864406066942701e-01  1.0886812921693723e-01  2.5999949520499395e+00  6.2923967803186431e-01  1.5640620785788875e+00  7.2818944483809105e+00  1.0610888110686028e+00  2.8362996261327489e-01  5.5579706535879581e+00  4.1018038341013972e+00  1.2781795482397435e+01  3.8049510442439960e+01  3.2946082392232292e+01  1.9322369037199405e+01  6.0512889646998902e+00  1.6886975567027029e+01  3.9048772410567474e+00  1.0122113976128981e+00  2.0351089613147774e+01  5.5287204207189546e+01  9.2722872898006292e-01  1.5172537297936863e+01  1.6879344989288120e-01  1.0897787998937286e+01  5.1162739922349708e+01  5.6356112551926799e+01  3.5865276182204738e+01  5.4821656060014853e+01  9.1132050040009027e-01  4.6182820809125378e+00  1.5748159635252282e+01  5.4152641933738082e+00  1.7582439686669891e+00  1.3350054799568916e+01  1.1676671472411324e+00  7.8010551944611786e+00  5.5999592595494074e-01  1.0721400466462163e+00  1.7267344258944067e-01  4.3374297132578059e+00  3.8527722673894502e+01  8.9934242537916032e-01  1.0264634963257562e+00  1.7266614907667517e+01  1.5510609745229170e+01  3.6382148866570714e+00  3.3882979231623738e+00  7.5480954382447720e+00  8.2821196874429415e+00  1.2700883950487389e+00  9.3460938698112344e+00  2.2853333100023949e+00  5.0009173322999674e+00  2.7883184116770234e+01  2.1065616842396628e-01  2.1216880594185117e+00  5.6507204507924534e+01  1.4480550115710686e+00  9.2202548592250821e-01  1.3836765092745921e+01  4.7934002715840407e+00  4.2734934853526605e+00  1.7686871883076356e+00  2.8738704931327592e+00  5.1965255985642429e+00  1.5398579080643331e+00  5.0928181439900772e-02  2.0970256430774215e-01  2.2163014531079696e+01  2.7348514543676417e+00  1.3444414283689674e-01  1.8470341475907382e+01  1.3002497820304786e+00  1.1042773545625300e+00  5.5334602161548130e+00  5.7404762791314923e+00  5.3131481633070727e+00  1.3186470667093306e+00  1.8322111468995925e+00  1.1802441322802601e+00  3.4286173422258981e-01  8.3731110303512146e-01  1.2987295174188493e-01  3.2107214552117269e-01  5.3872949647265211e-01  3.0246983975827946e-01  8.6920445812601066e-01  2.8930280501748556e-01  4.7587692925009561e-01  2.1585890196356402e+01  3.1428812580730164e-01  4.9851767130873220e-01  5.9147363315154100e-01  8.2618696680583259e-01  2.7992536923229966e-01  2.0879050000000001e+02  4.3673174444652751e+01  3.5943681270141553e+01  2.4175204522619662e+01  1.4646700550531415e+00  6.3160335918543076e-01  3.9484917696622617e+01  1.0161637149243360e+01  3.3746633327367146e+00  7.8067490112993562e-02  2.8739925488837454e+00  1.3547915129671146e+01  3.7309761072535785e+00  4.0659866438531171e+00  9.2564791556769929e-02  5.0800940873618328e-01  7.1475691013436959e+00  2.1755575140857704e+01  2.9596463570455867e-01  2.1068414945699288e+01  1.4695214883107472e+01  4.6538289036342615e+00  1.7824283278239377e+00  4.6449319360029779e+00  1.7084414778943395e+00  1.6282517204456930e+00  1.3628349051496322e+01  1.3941550000000001e+02  1.6775804851212321e+00  1.2629046899126931e-01  1.4511225476712319e+01  3.6209870204658995e-01  2.6452994110071959e-01  1.4814000367266533e+00  2.8476251223006162e+00  1.7751901429532808e+00  1.3702639068852274e-01  3.1994161306846416e-02  4.3109079054834297e+01  1.8992701736335903e+01  2.0019965917482185e+01  5.8275782389617197e+00  2.4828438664941799e+00  3.3334588308678100e+01  3.3235983245891141e+01  2.0001336306090489e+00  1.7054493333354800e-01  2.2968517307299070e+00  5.4030048093455720e+00  3.9147276806777159e-01  3.3427402134035739e-01  6.7535352014639196e+00  1.8782546909712281e+01  4.8704767702352553e-01  3.4139624591971085e-01  1.9871825207710552e+00  8.9115811341002882e-02  9.4719061230007799e+00  3.9421571605380062e-01  3.3632077445458113e+00  2.1018347776126745e-01  1.9010325190490410e-01  2.9259516210921324e+00  5.3472393291708393e+01  9.0937301816591010e+00  5.9458663527839806e-01  7.9988571480659907e+00  1.3287741497209427e-01  9.4441274785663110e-01  2.8815844092955327e+00  1.9977243116439521e+01  2.7383463570566811e+00  2.4691549999999998e+02  1.1991549999999999e+02  2.3379050000000001e+02  6.6193368714731149e-01  4.6146809282594026e+00  6.0710510861925238e-01  3.0251738902492009e-01  2.5479050000000004e+02  1.3147329799487821e+01  4.4086991603344794e+00  3.7703720332458757e-01  1.9618561326230961e+00  3.8284027443241186e-01  2.0083613837886114e+00  1.0168280905848350e+01  7.1617173701527719e+01  6.2766476554838036e+01  2.6273921319772592e-01  1.8531906550283285e+01  5.9055017808388115e+00  7.0780119206848049e+00  1.1667708281891285e+00  1.3241079212351703e+00  1.1244538390622603e+01  3.4318737400096717e+00  1.1002402242047932e-01  1.7792978948460603e+00  1.7895879162171475e+00  9.9349987881734703e-01  5.2721303339847969e-01  9.6872320974888593e-01  2.0874646728574658e-01  2.4856199870465859e-01  4.2901767654466183e-02  2.9593896770982440e+01  1.0145908869151998e+00  2.0520865110830094e-01  1.0623690710377401e+01  4.8290500000000002e+01  1.1399935000024497e+01  2.9001456422672653e+00  9.5161793156718688e-01  5.4397496025032455e-01  2.8909860636539051e+01  5.3780963525119185e+00  2.9782637197931336e+00  7.3846954695539058e+00  2.6868068208001691e+01  1.0290500000000002e+01  2.1373543283774502e+01  1.9123708314175751e+00  7.5514442248023061e-01  1.5588037455072552e+00  7.1415499999999994e+01  8.1894082666496493e-01  3.0870270046985646e+00  8.2257153632471047e-02  6.6848156178480149e+00  2.0229050000000001e+02  2.6627641767856417e+01  3.6072052060155082e+00  3.8384601252494357e+00  1.9144312574866897e+00  7.4452455265911721e-01  2.2100932631293045e+01  7.4155000000000006e+00  1.1663845466346552e+00  9.8837727728587410e+00  4.4915500000000002e+01  1.2598564936624783e+01  1.2091549999999999e+02  1.3034895067442451e+00  1.4368710951150918e+01  1.9629050000000001e+02  3.8244207614738137e+01  1.6591550000000001e+02  1.0340269311071635e+01  4.4201994760379271e-01  1.6993080804245777e+00  5.7905000000000006e+00  2.3754769819695773e-01  7.3105078874593241e+00  1.7999106090879366e+01  1.5749466999147221e+00  2.2530038458223198e+00  2.4029050000000001e+02  3.3897061397470303e+01  3.8380915276899172e-02  1.8271539042010371e-02  5.8281861913506960e-01  5.7805782682576923e-01  7.3639238503292914e-01  3.4914808817329508e-02  2.2441550000000001e+02  4.9166812158037896e+00  2.4408463734011222e-02  6.2790500000000002e+01  6.6915499999999994e+01  4.9002223504318714e+00  2.9480490411036819e-01  2.7836466618238838e+01  6.6077765480210993e-02  1.3539405829608020e-01  1.4941550000000001e+02  7.7905000000000006e+00  1.0839380340808239e+01  2.3148456647604290e+00  5.6915500000000002e+01  4.3784311158940808e-01  8.8193200273099226e-01  4.2607180177426551e+00  5.8611055601669179e+01  1.0448024149112870e+01  7.3760691017585589e-01  1.9779050000000001e+02  2.9067153378941879e+00  6.8651766853159986e+00  4.7405404623380709e-01  9.7501190651203617e-01  1.7860379857985489e+00  6.2075479766386792e+00  2.0341550000000001e+02  5.3193284605884180e+01  1.4483799249929959e+01  5.3596346933865206e+01  1.8475157390373898e+01  5.9482250230737783e+00  4.0187243816247138e+00  1.3441550000000001e+02  1.0191549999999999e+02  2.0529050000000001e+02  1.0891549999999999e+02  3.5790500000000002e+01  2.7905000000000006e+00  2.9155000000000006e+00  4.4155000000000006e+00  1.9979050000000001e+02  2.5290500000000002e+01  2.1279050000000001e+02  1.8291550000000001e+02  3.2905000000000006e+00  1.9479050000000001e+02  2.2779050000000001e+02  8.9415499999999994e+01  9.8415499999999994e+01  1.6790500000000002e+01  1.6041550000000001e+02  1.9529050000000001e+02  8.1915499999999994e+01  1.7915500000000002e+01  2.5415500000000002e+01  3.4415500000000002e+01  7.0415499999999994e+01  2.1729050000000001e+02  4.2905000000000006e+00  3.0290500000000002e+01  7.5915499999999994e+01  1.1915500000000002e+01  1.3290500000000002e+01  4.1790500000000002e+01  5.5290500000000002e+01  6.8415499999999994e+01  1.8391550000000001e+02  2.0790500000000002e+01  8.5415499999999994e+01  2.2229050000000001e+02  2.4729049999999998e+02  1.2693035390304437e+00  1.7905095243775679e-01  4.4954800813682558e+00  3.7102093968986416e-01  3.5544799113145333e+00  2.8509486879767936e+00  5.4688283889571820e-01  8.0634494307850986e+01  8.3980492576066601e-01  2.7572600974695360e+00  1.4812996744796720e+00  1.8028691495352187e+00  5.5713576456004010e-01  1.9688349542706658e+00  2.7114982022437964e+01  5.4842356563407835e-01  9.6712861624085580e+00  4.9836768543819039e+00  2.1629637941230705e+01  8.1619796982863004e+00  1.1994104677134454e+00  2.5077706625385005e-01  1.0839705671584023e+00  3.0588505581611902e+00  5.3152661356035708e+01  2.9021470002471805e-01  2.9006267669474667e-01  3.8459772922323672e+00  7.9542432089750770e-01  1.2214217245871299e+00  4.3587948660834086e-01  1.9431917746439824e+00  4.8732208670457268e+01  1.4338924098422197e+00  9.8298704495087890e+00  5.5458639999561388e-01  1.0046475155893904e+00  6.9147542017475530e+01  3.5519026818004342e+01  1.7130343928234317e+00  2.3750156105695011e-01  7.9900317227121473e-02  9.1481060694585492e-01  5.5227089914100816e-02  2.2230196882028885e+01  2.2319416151450163e+01  6.7999650017550380e+01  9.8802612450449168e+00  6.8214024208352955e+00  1.7046807824796666e+00  7.8113343755153526e+00  1.5438520670116678e+00  1.3539965596784278e+01  5.5822705749974597e+00  1.2220622103481151e+00  8.3982569584244171e-01  5.8062866298078675e-01  1.3326277305149269e+01  6.1743615500134595e+01  3.5711605379283440e+00  1.8208019218923412e+00  1.6213948553502655e+00  1.9629515259340355e+01  6.7120097325439909e-01  8.3099034033887353e-02  1.7529702113190753e+00  8.8494444171659428e+00  8.0385004779465152e+00  4.4967159708171495e-01  1.7833887790826692e+00  6.4589508527220882e+00  4.4978352887007837e+01  1.2806829194371666e+01  6.8496747925569483e+00  1.6485783079742642e+01  2.3895573730471313e+01  1.5523524295498361e+00  2.7724020165333901e-01  5.3445491622135766e-01  3.6297485863283330e-01  2.5883365707990759e+01  1.5696562204305758e-01  2.4455841896400943e-01  2.1754790390200547e+01  6.5186027062091370e+01  4.9812037796957815e+00  1.3211816969067445e+00  1.2560957136873991e+00  8.8070641756612777e-01  2.4635098769692076e+00  1.9436346019432149e+00  2.0589852104261963e-01  5.3184436719154415e-01  7.1682367484014087e-01  2.1306298300513959e+00  2.4251577197116972e-01  4.8915389259398291e-02  2.6672506216060725e+00  9.9644285818100503e-02  2.1665538900379938e-01  1.5218050633616154e+00  9.3870652581474090e-01  2.1513422569268541e+00  1.3130461821424996e+01  9.1369671066078091e+00  1.9513668650227580e+00  1.0845279647969410e+02  1.7033390570494646e+01  2.2184297668200230e+01  4.3791702007544564e-01  3.4328895596100857e+01  2.7148402730788352e+00  3.5690249218759322e+00  1.1693820319106552e+00  3.8195978911537329e+00  1.2019905303695173e+00  9.2764643875442783e+00  2.3216386490401398e+01  2.4583364210090264e-01  1.1973602439325663e+00  1.6838118456898004e+00  1.2506037513977028e-01  1.2371239330188570e+00  7.7311900368149026e+01  4.8107107549866894e+00  5.9117267821296993e-01  8.3189767028935350e+01  9.3555066471236955e+01  1.9552273624238784e-02  3.3915698661790294e+00  3.6390495136083119e+00  2.3770061544462109e+01  1.0717265100091760e+01  1.0278850395503814e+00  2.3274483516585256e-01  4.4074314364990824e-01  3.4812797707203856e+01  4.2990813685837548e+00  5.4072343691667022e+01  6.0192119844303638e-01  3.5713833950612967e-01  5.2444963697483005e-01  1.7834447798179085e+01  2.1489311197128902e+01  7.0724614084933620e+01  6.1979704147970303e+00  4.5672456523878587e+01  9.0541478983245778e+00  8.8620051089135838e+00  3.4298502017017483e+00  3.7574254103132110e+00  5.1886013658717856e+00  1.1351137834568326e+00  1.7280948170477106e-01  2.8275211060624090e+00  5.6636767986739592e+01  1.1950025001440277e+01  1.2176360956803600e+00  1.7631594092874017e+00  8.1054206569900522e+00  1.4117484521584339e+01  3.5871174118132249e-01  2.6150468737960484e+00  1.2008122999234628e+01  7.2967110980066155e-02  3.4701600739652172e-01  3.7959403327639102e-01  2.2184830221406340e-02  5.0115540001637058e