<?xml version="1.0"?>
<VTKFile type="UnstructuredGrid"  version="0.1"  >
<UnstructuredGrid>
<Piece  NumberOfPoints="3311" NumberOfCells="6266">
<Points>
<DataArray  type="Float64"  NumberOfComponents="3"  format="ascii">0 8 0  0 0 0  8 0 0  8 8 0  5.996053456856544 4.125581039058627 0  6 4 0  5.996053456856544 3.874418960941374 0  5.984229402628955 3.749333532871391 0  5.964574501457378 3.625237370828551 0  5.937166322257262 3.502620225670289 0  5.902113032590307 3.381966011250105 0  5.859552971776503 3.263750894630644 0  5.809654104932038 3.148441416869854 0  5.752613360087726 3.036492651796568 0  5.68865585100403 2.928346410042006 0  5.618033988749895 2.824429495415053 0  5.541026485551579 2.725152020502621 0  5.457937254842823 2.630905788142622 0  5.369094211857376 2.542062745157176 0  5.274847979497379 2.458973514448421 0  5.175570504584946 2.381966011250105 0  5.071653589957993 2.31134414899597 0  4.963507348203431 2.247386639912273 0  4.851558583130144 2.19034589506796 0  4.736249105369355 2.140447028223497 0  4.618033988749895 2.097886967409693 0  4.49737977432971 2.062833677742738 0  4.374762629171449 2.035425498542622 0  4.250666467128609 2.015770597371044 0  4.125581039058626 2.003946543143457 0  4 2 0  3.874418960941374 2.003946543143457 0  3.749333532871391 2.015770597371044 0  3.625237370828551 2.035425498542622 0  3.502620225670291 2.062833677742738 0  3.381966011250105 2.097886967409693 0  3.263750894630644 2.140447028223497 0  3.148441416869856 2.19034589506796 0  3.03649265179657 2.247386639912273 0  2.928346410042007 2.311344148995969 0  2.824429495415053 2.381966011250105 0  2.725152020502621 2.458973514448421 0  2.630905788142623 2.542062745157177 0  2.542062745157176 2.630905788142623 0  2.458973514448421 2.725152020502621 0  2.381966011250104 2.824429495415055 0  2.311344148995969 2.928346410042007 0  2.247386639912273 3.036492651796569 0  2.190345895067961 3.148441416869856 0  2.140447028223497 3.263750894630644 0  2.097886967409693 3.381966011250106 0  2.062833677742738 3.502620225670291 0  2.035425498542623 3.62523737082855 0  2.015770597371044 3.749333532871391 0  2.003946543143457 3.874418960941374 0  2 4 0  2.003946543143457 4.125581039058627 0  2.015770597371044 4.250666467128609 0  2.035425498542622 4.374762629171449 0  2.062833677742738 4.49737977432971 0  2.097886967409693 4.618033988749895 0  2.140447028223497 4.736249105369357 0  2.190345895067961 4.851558583130146 0  2.247386639912273 4.96350734820343 0  2.31134414899597 5.071653589957994 0  2.381966011250105 5.175570504584947 0  2.458973514448422 5.274847979497379 0  2.542062745157177 5.369094211857377 0  2.630905788142623 5.457937254842823 0  2.725152020502621 5.541026485551578 0  2.824429495415054 5.618033988749895 0  2.928346410042006 5.68865585100403 0  3.036492651796569 5.752613360087727 0  3.148441416869855 5.809654104932039 0  3.263750894630645 5.859552971776503 0  3.381966011250106 5.902113032590307 0  3.50262022567029 5.937166322257262 0  3.625237370828551 5.964574501457378 0  3.749333532871391 5.984229402628956 0  3.874418960941373 5.996053456856544 0  4 6 0  4.125581039058627 5.996053456856544 0  4.250666467128609 5.984229402628955 0  4.37476262917145 5.964574501457378 0  4.497379774329709 5.937166322257262 0  4.618033988749895 5.902113032590307 0  4.736249105369356 5.859552971776503 0  4.851558583130146 5.809654104932039 0  4.96350734820343 5.752613360087727 0  5.071653589957993 5.688655851004031 0  5.175570504584947 5.618033988749895 0  5.274847979497379 5.541026485551578 0  5.369094211857377 5.457937254842824 0  5.457937254842824 5.369094211857377 0  5.541026485551578 5.274847979497379 0  5.618033988749895 5.175570504584947 0  5.688655851004031 5.071653589957993 0  5.752613360087727 4.96350734820343 0  5.809654104932039 4.851558583130146 0  5.859552971776503 4.736249105369356 0  5.902113032590307 4.618033988749895 0  5.937166322257262 4.497379774329709 0  5.964574501457378 4.37476262917145 0  5.984229402628956 4.250666467128609 0  4 0 0  4 8 0  0 4 0  8 4 0  0 2 0  2 8 0  6 0 0  2 0 0  6 8 0  0 6 0  8 6 0  8 2 0  6.521298246749463 6.521298246749463 0  1 0 0  0 1 0  1.483805613147755 1.483805613147755 0  1.478701753250537 6.521298246749463 0  6.521298246749463 1.478701753250537 0  3 8 0  0 3 0  8 3 0  0 5 0  5 8 0  5 0 0  3 0 0  8 5 0  6.873734575860524 2.615431780543919 0  1.116982513655503 5.247593072616309 0  6.883017486344498 5.247593072616301 0  5.247593072616301 6.883017486344497 0  1.126098722170601 2.617891572298291 0  2.615431780543918 6.873734575860524 0  2.752406927383699 1.116982513655503 0  5.384568219456082 1.126265424139476 0  8 1 0  1 8 0  0 7 0  7 0 0  8 7 0  7 8 0  7.020499434641315 3.646406833984896 0  0.9797566053390774 3.648465816465237 0  3.715288427949091 7.011933824133993 0  4.353593166015106 0.9795005653586846 0  0.6967635209176272 4.5 0  3.5 0.6967635209176218 0  7.275042869145442 4.47475797999556 0  4.511587833362441 7.305805066533029 0  6.221909358080951 5.748059996166043 0  2.210760254282484 6.169547847869656 0  5.847454471986239 1.9044742386454 0  2.256260253799227 1.778178383200799 0  1.980629682828464 0.8249524138953971 0  0.6577483392967642 1.5 0  6.111193299431891 0.7920397023581334 0  0.6549706477735622 6.5 0  6.5 7.345029352226438 0  1.5 7.345029352226438 0  7.175403142852891 6.018842476908514 0  7.207960297641867 1.88880670056811 0  1.20233119856484 0.7548054172032042 0  7.138369340064689 0.8616306599353107 0  7.199038705435568 6.950962679584875 0  0.7268524757237351 7.273147524276265 0  5.787512723837678 6.360832417372146 0  1.584163534320421 5.803133310871846 0  0 0.5 0  0.5 0 0  1.813082410952285 2.362102895128433 0  4.585782825748341 6.620641716166908 0  3.414352878528616 1.379965389869018 0  1.37996538986902 4.585647121471382 0  5.5 8 0  5.795705687727962 7.325709583536691 0  0 5.5 0  0.6742904164633071 5.795705687727965 0  6.608410641840795 4.622450854667636 0  8 7.5 0  2.5 0 0  8 5.5 0  0.6430017150697597 2.16323374265656 0  8 2.5 0  5.5 0 0  2.5 8 0  2.162575541096604 7.357557400929156 0  6.209066202375347 2.498720159134196 0  8 6.5 0  3.213766170612044 6.557595245863999 0  4.810864017456047 1.461836067072289 0  6.474921798096663 3.108973325505615 0  1.461596867478842 3.191209948990856 0  0.6057536094346159 0.6057536094346163 0  3.5 8 0  3.116533476945463 7.331420182036469 0  7.5 0 0  7.50138895891471 1.352981564798016 0  6.5 0 0  4.925848415861192 0.6541083366372827 0  6.636309068723879 2.066043736464307 0  7.345891663362717 3.074151584138809 0  2.034062939515405 6.739458287989336 0  0.6538386597513111 3.07650783347036 0  1.306229817586613 2.051251581737755 0  1.711425920865481 5.22190430062486 0  5.172422863235413 6.301009428280244 0  2.75 0.5305166887675732 0  7.469483311232427 5.25 0  0.5722092524055858 5.06190966273399 0  5.072435773461397 7.430123991012138 0  6.319527671469182 5.122233284663893 0  2.835488340834966 1.696071607164519 0  5.920435248419656 1.334295501631503 0  4.5 0 0  8 3.5 0  7.432272671858859 2.512886319125838 0  5.571830688303236 0.5764100372080221 0  0 3.5 0  5.289311353655532 1.776472779228421 0  8 0.5 0  7.5 8 0  1.5 0 0  7.25 7.504032729381043 0  6.06696156120921 6.840932928848806 0  1.126750463624113 6.102788617506953 0  4.079942410528958 1.456191250380107 0  6.543808749619893 3.920057589471043 0  1.456853858348016 3.920078412765323 0  2.719154100210118 6.345760317541158 0  6.75 0.4820732229428856 0  1.147555431445879 6.942001202471608 0  0 2.5 0  4.033254072103534 6.555375438181171 0  7.459092130175394 3.96491680499676 0  4.023910705003057 0.5449410641392927 0  0.46324372358657 3.75 0  4.000538644612607 7.464791837989975 0  0 7.5 0  0.5 8 0  6.641367242777847 0.9816996559636945 0  2.060098699240311 5.602794388158723 0  8 1.5 0  1.5 8 0  6.5 8 0  0 6.5 0  0 1.5 0  4.5 8 0  8 4.5 0  3.5 0 0  0 4.5 0  5.71241378857682 5.847235604203799 0  1.980356857777504 1.341494340873432 0  6.73841195435907 5.743461321139284 0  7.001901661066728 1.342234074252575 0  2.271256172523833 0.4319561292819105 0  7.568195995774798 5.728421007950713 0  1.079620717833623 4.213724869256849 0  3.785914285080838 1.07957548172746 0  1.75 0.4068334879001349 0  7.593198924126513 6.25 0  2.644210543189512 7.51442503308679 0  1.759107121904632 1.881466257766474 0  7.598221819062164 0.75 0  7.25 0.4017781809378356 0  7.016697196788522 6.489226510093869 0  0.8135924992537802 1.042303878660207 0  7.590765621254587 6.709933711568556 0  6.972320805074426 4.114496419277549 0  0.6689706016379435 2.619626936075973 0  4.490317171939625 0.4719794785870491 0  7.586130070956817 7.194177964358491 0  1.564887898956812 2.745941764426699 0  7.45216884474369 3.51322113522411 0  7.58575169794429 4.808833363985082 0  3.538045596929494 7.533919544016318 0  4.268777385438645 6.932912710296469 0  6.25 0.3687278481717181 0  6.915054373976157 3.207810438216838 0  7.002360785621788 4.82228450274451 0  0.3972487693887257 4.181902501602563 0  0.9482937176147312 4.850514130935556 0  3.25 0.3483817604588109 0  3.078724571458289 0.822405414577691 0  1.086245288390012 5.675597706514477 0  1.074212327675575 1.667136181084258 0  2.267204536760128 2.246625033644231 0  4.821181984497242 6.992731518467086 0  2.439850702774412 0.8250274309749102 0  7.174972522369596 5.560160665184872 0  5.904966268715267 5.477643303883068 0  6.207512920818998 6.198213208971735 0  2.504889937937569 1.447997919101883 0  0.3997445887406886 1.156770199073539 0  0.3288741696483821 1.75 0  1.637615877582278 1.083042277773219 0  2.524803464880197 5.901811913432696 0  5.794604146187496 2.343782137192302 0  6.836411413561036 7.606548808898578 0  1.826315648259891 7.614255845340183 0  1.090927571027496 7.551079899216545 0  6.140889361672077 7.589220379873516 0  1.066148535748459 6.537245249458406 0  0.410779620126483 6.140889361672079 0  0.4489201007834544 6.909072428972504 0  6.470724483843425 6.932131515022222 0  1.638960019540123 6.929295531772199 0  5.660873205465542 6.931985632892141 0  3.623652679878191 6.609113767281198 0  7.62
[...]
<PointData  Scalars="f_24"> 
<DataArray  type="Float64"  Name="f_24"  format="ascii">1.9746400000000000e+02  5.4640000000000031e+00  6.9463999999999999e+01  2.6146400000000000e+02  9.2477913787001484e+01  8.9463999999999999e+01  8.6450023912187390e+01  8.3447507365430496e+01  8.0467186967991239e+01  7.7518989273969595e+01  7.4612020553225179e+01  7.1754570735661844e+01  6.8954130885338046e+01  6.6217423343903462e+01  6.3550443482780096e+01  6.0958511822460657e+01  5.8446335118132630e+01  5.6018074876048267e+01  5.3677421656748486e+01  5.1427673441084046e+01  4.9271816284181888e+01  4.7212605461827522e+01  4.5252645323437996e+01  4.3394466105666964e+01  4.1640596030004417e+01  3.9993627105331583e+01  3.8456273180638853e+01  3.7031418941947543e+01  3.5722158718448455e+01  3.4531824153169893e+01  3.3463999999999999e+01  3.2522527528231869e+01  3.1711495244390715e+01  3.1035216875204348e+01  3.0498196791363494e+01  3.0105083285333262e+01  2.9860610344094734e+01  2.9769528775584661e+01  2.9836527752183098e+01  3.0066148022499622e+01  3.0462688210822744e+01  3.1030105769125978e+01  3.1771914267030478e+01  3.2691078798563119e+01  3.3789911349307374e+01  3.5069968002462353e+01  3.6531949866715635e+01  3.8175609582499860e+01  3.9999665206425462e+01  4.2001723187237801e+01  4.4178212031780291e+01  4.6524328117853429e+01  4.9033994944673189e+01  5.1699836923367229e+01  5.4513168602482715e+01  5.7464000000000006e+01  6.0541058477296801e+01  6.3731827345540459e+01  6.7022601144902737e+01  7.0398557285679487e+01  7.3843843491775232e+01  7.7341680244966895e+01  8.0874477196672430e+01  8.4423962296264520e+01  8.7971322184699346e+01  9.1497352222539774e+01  9.4982614365181576e+01  9.8407600967717229e+01  1.0175290249948598e+02  1.0499937707560174e+02  1.0812831967081772e+02  1.1112162887069304e+02  1.1396196903639398e+02  1.1663292581232253e+02  1.1911915298936687e+02  1.2140650884966801e+02  1.2348218025971208e+02  1.2533479294515850e+02  1.2695450657058061e+02  1.2833309345734594e+02  1.2946400000000000e+02  1.3034239008228397e+02  1.3096517004463831e+02  1.3133099501190168e+02  1.3144025664898743e+02  1.3129505266966632e+02  1.3089913867527656e+02  1.3025786314240486e+02  1.2937808660764887e+02  1.2826808631002100e+02  1.2693744774417686e+02  1.2539694474755983e+02  1.2365840988920405e+02  1.2173459704520241e+02  1.1963903813400682e+02  1.1738589604253809e+02  1.1498981580076378e+02  1.1246577605766815e+02  1.0982894287558506e+02  1.0709452779339091e+02  1.0427765201322015e+02  1.0139321844179567e+02  9.8455793168220808e+01  9.5479497787603719e+01  2.1464000000000002e+01  2.1346400000000000e+02  5.3464000000000006e+01  1.1746400000000000e+02  1.7464000000000002e+01  2.0146400000000000e+02  4.1464000000000006e+01  9.4640000000000022e+00  2.3346400000000000e+02  1.1346400000000000e+02  1.7746400000000000e+02  8.1463999999999999e+01  2.6172735644250450e-01  6.4640000000000031e+00  8.4640000000000022e+00  1.9541464702694144e-02  2.0111492064947184e-01  8.0982812818622976e-02  2.0646400000000000e+02  3.2464000000000006e+01  9.6463999999999999e+01  8.0463999999999999e+01  2.2246400000000000e+02  3.0464000000000002e+01  1.4464000000000002e+01  1.4446400000000000e+02  4.1723914730203049e-01  4.9308698255518335e-01  7.8137047440656138e-01  1.0675947288844616e+00  1.6067803779912893e-01  8.7354584311530004e-01  1.1779318980993053e-01  1.9734441714570927e-01  7.2463999999999999e+01  1.9846400000000000e+02  1.5246400000000000e+02  5.4464000000000006e+01  2.1646400000000000e+02  2.4646399999999997e+02  1.0859060683308317e+00  5.4235642690893227e-01  1.9163477418171024e+00  3.1083448586646778e-01  2.0085884642617189e+00  5.3775816821098732e-01  3.3508033392436491e+00  6.6113867949433658e+00  1.4829607872935102e+00  1.4536520699361792e+00  7.7643753384313041e-01  4.0092902440300093e-01  1.4430457354560922e-01  4.5008686807598919e-01  7.6485193890991210e-01  4.6060932567232191e+00  8.7618168671108574e+00  7.1247340372725851e+00  2.6581881505741682e+00  1.4471096885397978e+00  1.6830543617856836e-01  1.5156664193519755e+00  4.6149083187075046e+00  8.4038875451371506e+00  8.3961779509557743e-01  4.6756272185674702e-01  6.2140000000000031e+00  5.7140000000000031e+00  7.2686650916132201e-01  3.6317236690562664e+00  8.4133621893047128e-01  1.9088153174196842e+00  2.2771400000000000e+02  7.4303927326738153e+00  9.6213999999999999e+01  3.4483429364288343e+00  2.8830067818044847e+00  2.3821400000000000e+02  1.1714000000000002e+01  1.6021400000000000e+02  7.4720953807015367e-01  8.8213999999999999e+01  3.5714000000000006e+01  2.0371400000000000e+02  7.6687291385521155e+00  1.7983896160088331e+00  1.9621400000000000e+02  3.6106238257779846e+00  1.2397362084887420e+00  2.6015229382679008e+00  1.3745481351455162e+00  5.3596300705491851e-01  2.0971400000000000e+02  7.0248122742381591e+00  6.1714000000000013e+01  5.9317515584965683e+00  4.7714000000000006e+01  1.0512385401789623e+00  1.5062643384682919e-01  3.5174609710170737e+00  4.0285496099721785e-01  1.2152112737435077e+00  5.5479527612217874e-02  3.4736102753672071e+00  5.8456938999125674e+00  8.6682685299961038e-01  9.9598298661749745e+00  4.4616930134201889e+00  1.2477772894133761e+01  4.9501002069222153e+00  1.3863047575459775e+00  9.9887424026105634e-02  2.5714000000000002e+01  1.0621400000000000e+02  4.8990069462774812e+00  1.9520379026461745e+00  4.2214000000000006e+01  2.2167126979201899e+00  7.0213999999999999e+01  2.5371399999999997e+02  7.7140000000000031e+00  2.3249750314723642e+01  6.7149274882320120e-01  4.1894325356160722e-01  1.9049007317181921e+00  4.8402572483609925e+00  3.2132450378412551e+00  3.2554563972910628e+00  4.4752880628647036e+00  1.3233647257751939e+00  2.4214000000000002e+01  6.8489385135932572e+00  7.2776732947722174e+00  1.3761759262718050e+00  4.6691434370363423e+00  1.4086851865930429e+01  1.7421400000000000e+02  1.9771400000000000e+02  4.0002954825954673e-01  6.1065277915550329e+00  7.6213999999999999e+01  1.9971400000000000e+02  2.3971400000000000e+02  1.3221400000000000e+02  1.2214000000000002e+01  2.1771400000000000e+02  1.3021400000000000e+02  1.7714000000000002e+01  6.6213999999999999e+01  7.7169409999856828e+00  3.7280388488077826e-02  4.4299437339229797e-01  5.1660778673480257e-01  1.1830852152132565e+00  1.8561344370863505e+01  7.0396408186746451e-01  3.1722885129024564e-01  1.1044053289339808e+00  2.3904657402027972e+01  1.7573205169622039e+01  1.1014628982935473e-01  1.0110254392735110e+01  8.6578065507507027e+00  1.4094672645674242e+00  1.7651137765433897e-01  2.5627165233905643e+01  1.1808087842458335e+00  8.9997201798492255e-01  2.3886781533771995e+00  2.9876637549234239e+01  7.8459929663357153e-01  6.4656211140001600e+00  1.7073905254991523e+01  1.9747996464004210e+01  1.8187556054370451e+00  6.4894989786541162e+00  7.6009850868517392e-01  1.1569801496719718e+00  7.6875997026792939e+00  7.6653348270348365e-01  2.7388611153015709e+00  2.6657412585327750e-01  4.7854652951230214e-01  6.7252533197549300e-02  2.7555130268680377e+00  1.7386944675927964e+00  1.8178064926390361e-01  2.5054281935146108e+00  1.3461327354737621e+01  3.6418133843704131e-01  2.0069133894958113e-01  1.2693699427189515e+00  2.7382142209285418e+00  3.8984081879887389e-02  1.2546718161852709e+01  5.4197119208614364e+00  3.3153303800269668e+01  2.8560581364228252e+01  2.0847315561642830e+01  2.9202838302112006e+01  7.0411166022686567e-01  1.4896407877143758e+01  1.5710573705695456e+01  1.1443686842088170e+00  8.8748815732649733e-01  1.1011155632015892e+00  4.4152606574507178e+00  1.2045882867631843e+01  2.5651928996315682e-01  3.6416461460981536e-01  8.1985695209975287e+00  2.4588834096330384e-01  6.4341324455225557e+00  1.2959479340215543e+00  3.8808307437944116e+01  3.7493557820087903e-01  4.3453293785351188e-01  4.0751996431449437e-02  1.4666377109072384e-01  4.8924054278351630e+00  1.4314599737859801e+01  2.3552508879836520e-01  3.4505566044993791e-01  8.9758587211441965e-01  1.1470302236493730e-01  2.8542902959525347e+00  6.4369956228177483e-01  1.5895275508068114e+00  7.8588097953598313e+00  1.1181448375877849e+00  3.0140871038788475e-01  6.1508459710256966e+00  4.4291182331589978e+00  1.3212946571789301e+01  3.8588238584978477e+01  3.3492983156454294e+01  1.9752668578099112e+01  6.3966172383521611e+00  1.7610871943031121e+01  4.5377357349653478e+00  1.0328438760432630e+00  2.0919141492030846e+01  5.5909826531292389e+01  9.4967235430931440e-01  1.5628549729954782e+01  1.8289085747037107e-01  1.1221315161666782e+01  5.1777169866330368e+01  5.7187505253207199e+01  3.6303884087682491e+01  5.5526522283524329e+01  9.8514094512226624e-01  4.6750037095744865e+00  1.6123318724036473e+01  5.7323004536037132e+00  1.8120848872799622e+00  1.3737117289696789e+01  1.1820395017216789e+00  8.1309952144227111e+00  5.7830141001646973e-01  1.1028827545557551e+00  1.7722208321502261e-01  4.9938279620445041e+00  3.9054284373667521e+01  1.6310555827080682e+00  1.6133665947917806e+00  1.7635641672112573e+01  1.5841798965987342e+01  3.9775512278557130e+00  3.7243293778111402e+00  7.8880726700689641e+00  8.5939037805651690e+00  1.3168558042985916e+00  1.0059514953475587e+01  2.3389784450218003e+00  5.3870783642844708e+00  2.8584979073492065e+01  2.3491693694900179e-01  2.1653986320735541e+00  5.7260052440216235e+01  1.5365193175454457e+00  1.7239323531494364e+00  1.4209037224272938e+01  4.8989706928789962e+00  4.3237993405165529e+00  1.8943719126171168e+00  2.9264287188100955e+00  5.7439768163942642e+00  1.5627214168163668e+00  6.1420763590481986e-02  2.3637135203680218e-01  2.2747448543729465e+01  2.8160437158377247e+00  2.0339350836061046e-01  1.8887967175096318e+01  1.3336726246551005e+00  1.1322830860875963e+00  5.9239102391669700e+00  6.1359664486876309e+00  6.0184101735919251e+00  1.3478612477359753e+00  1.8576300630548221e+00  1.1970263392351110e+00  3.5737440798265185e-01  8.7134959139476820e-01  1.4776172967061207e-01  3.2800417399428200e-01  5.7552601443422891e-01  3.2446841561074197e-01  9.2057984215062028e-01  4.9618123238083134e-01  5.7477319139370886e-01  2.2059279765108087e+01  3.4407562245997292e-01  5.5344940181149038e-01  6.4393646464459253e-01  8.5146283359509867e-01  2.8493447264687305e-01  2.1152650000000000e+02  4.4178151091982308e+01  3.6443554489179682e+01  2.4690546051566262e+01  1.5147156546184577e+00  6.5830603728433124e-01  4.0016159956783646e+01  1.0632856788389006e+01  3.4209389902003813e+00  1.0389068984739551e-01  3.0789091752230009e+00  1.4075128988569016e+01  3.8218727549375715e+00  4.1451357063931393e+00  9.6820835714788472e-02  5.5372720115395269e-01  7.2487792495660095e+00  2.2230000810916366e+01  3.2179398390525005e-01  2.1760283863129235e+01  1.5164452501262653e+01  4.7166459435869879e+00  1.8316795551767791e+00  4.7107383764072397e+00  1.7757213585082647e+00  1.6883177606456081e+00  1.4159906660180381e+01  1.4215150000000000e+02  1.7159996660618309e+00  1.4932613491488331e-01  1.4873733820886955e+01  3.7479477558667834e-01  2.6884148492472948e-01  1.9206803355178430e+00  2.8871072024669617e+00  1.8312185293374070e+00  1.4899471706893558e-01  3.5931459507822006e-02  4.3672946869139153e+01  1.9526525076686255e+01  2.0514936023788270e+01  6.4122865822656694e+00  3.0730648244917469e+00  3.3919192925087273e+01  3.3866909744229410e+01  2.5896324785917213e+00  2.1286567936062153e-01  2.3391819930815663e+00  5.4763478886632466e+00  4.5019477741633113e-01  3.7734050472342368e-01  7.3182767240233098e+00  1.9364507926060565e+01  4.9543103369289915e-01  3.7655997349958892e-01  2.0253733041410569e+00  9.7984718504808443e-02  1.0060076990582122e+01  4.3117830710480554e-01  3.4917516327921367e+00  2.2220531718030107e-01  2.0321530262749279e-01  2.9630284408335084e+00  5.4135265020945681e+01  9.2084757172117424e+00  6.2567654560609565e-01  8.3462110011449795e+00  1.4227442202000035e-01  1.0000521208266018e+00  3.1298802129358920e+00  2.0609176564680947e+01  2.8213512772094114e+00  2.4965150000000000e+02  1.2265150000000001e+02  2.3652650000000000e+02  7.2723861159570136e-01  4.7422145612211750e+00  6.2900890757288719e-01  4.6429331508929528e-01  2.5752650000000000e+02  1.3604295927890474e+01  4.5016710380427867e+00  3.8592426441720068e-01  1.9906797508056460e+00  3.8773012247564986e-01  2.0325294407335819e+00  1.0288098458480617e+01  7.2406459118474629e+01  6.3468251951086962e+01  2.7212919165259591e-01  1.9148466041704054e+01  5.9840262110119005e+00  7.1756839871858746e+00  1.2037314119695490e+00  1.3646534641254386e+00  1.1842101600461238e+01  3.5461293256284492e+00  1.8064897062028737e-01  1.8045471270115079e+00  1.8703929839878941e+00  1.0850632912261997e+00  5.3529298167222539e-01  9.9338091080394164e-01  2.1443724037189285e-01  2.5384603363487596e-01  6.5921709364627434e-02  3.0231856031245428e+01  1.0488708390727792e+00  2.0890622292861560e-01  1.1262852951289426e+01  5.1026500000000006e+01  1.2003133595476106e+01  3.0475986777149839e+00  1.0008344762835348e+00  5.6806120939202320e-01  2.9590931915870517e+01  5.5005348035756940e+00  3.0535157545969329e+00  7.6887970589069905e+00  2.7485244973315133e+01  1.3026500000000002e+01  2.1695630690492585e+01  1.9610875969603867e+00  9.2317155402365647e-01  1.7690792922166632e+00  7.4151499999999999e+01  9.2380865259041922e-01  3.1357324833432925e+00  9.1693972341080981e-02  6.7718133825053846e+00  2.0502650000000000e+02  2.7221345910463299e+01  3.7528721788902408e+00  4.0077659822156138e+00  2.0067390132479712e+00  8.1881303993467902e-01  2.2576212350074353e+01  1.0151500000000002e+01  1.2390873799847277e+00  1.0554653742425248e+01  4.7651500000000006e+01  1.3294462562045577e+01  1.2365150000000000e+02  1.3292973465459572e+00  1.4542914866206702e+01  1.9902650000000000e+02  3.8843711596393902e+01  1.6865150000000000e+02  1.0500929356834241e+01  6.1865298130174606e-01  2.3933367355797728e+00  8.5265000000000022e+00  3.2036597555530621e-01  7.9630925146180074e+00  1.8666895715591213e+01  1.8665171097050270e+00  2.3034804248865268e+00  2.4302650000000000e+02  3.4611763943121950e+01  5.0353809270802727e-02  2.2615303519369953e-02  5.9631423862107280e-01  5.8981858564208667e-01  7.4829790089052128e-01  3.8934159309235258e-02  2.2715150000000000e+02  5.0874971500833484e+00  3.1683021503305951e-02  6.5526499999999999e+01  6.9651499999999999e+01  5.2157443377620245e+00  3.0368050147317466e-01  2.8574600473356298e+01  6.9801845441248914e-02  1.4260246181616565e-01  1.5215150000000000e+02  1.0526500000000002e+01  1.1602149930557427e+01  2.3704331155584377e+00  5.9651500000000006e+01  4.6528055505104560e-01  9.0160480392357911e-01  4.3615246599000281e+00  5.9407434309739244e+01  1.0590605329061935e+01  7.6670631762559005e-01  2.0052650000000000e+02  3.1883452091542517e+00  7.5201417104852037e+00  7.3135868625650213e-01  1.6776230491693460e+00  2.1084842849150882e+00  6.7211115272371975e+00  2.0615150000000000e+02  5.3878501443551635e+01  1.4668637365950227e+01  5.4333179470630597e+01  1.8711736489476188e+01  6.6996493959680095e+00  4.3864609398868017e+00  1.3715150000000000e+02  1.0465150000000000e+02  2.0802650000000000e+02  1.1165150000000000e+02  3.8526500000000006e+01  5.5265000000000031e+00  5.6515000000000031e+00  7.1515000000000031e+00  2.0252650000000000e+02  2.8026500000000002e+01  2.1552650000000000e+02  1.8565150000000000e+02  6.0265000000000031e+00  1.9752650000000000e+02  2.3052650000000000e+02  9.2151499999999999e+01  1.0115150000000000e+02  1.9526500000000002e+01  1.6315150000000000e+02  1.9802650000000000e+02  8.4651499999999999e+01  2.0651500000000002e+01  2.8151500000000002e+01  3.7151500000000006e+01  7.3151499999999999e+01  2.2002650000000000e+02  7.0265000000000031e+00  3.3026500000000006e+01  7.8651499999999999e+01  1.4651500000000002e+01  1.6026500000000002e+01  4.4526500000000006e+01  5.8026500000000006e+01  7.1151499999999999e+01  1.8665150000000000e+02  2.3526500000000002e+01  8.8151499999999999e+01  2.2502650000000000e+02  2.5002649999999997e+02  1.3343060425999496e+00  1.8625461924711723e-01  4.6003652627979150e+00  4.0137216913926210e-01  3.6021175186229137e+00  2.8928869073685290e+00  5.5416804315812096e-01  8.1589520843578612e+01  8.8572808672210168e-01  2.8142320848753202e+00  1.5134849740140246e+00  1.8404860866977220e+00  5.7751202606689789e-01  1.9916871746539939e+00  2.7813774425917781e+01  7.1348159097278963e-01  9.8389970272144129e+00  5.0650847540821422e+00  2.2276756060164505e+01  8.8947403037793435e+00  1.3898861752037854e+00  2.8089041744440951e-01  1.1653580751824264e+00  3.1013153699289706e+00  5.3829203128590891e+01  3.9522548737620999e-01  3.0329749657834532e-01  3.9490917224959401e+00  8.3137512729212237e-01  1.2813046492779900e+00  4.7922680084592528e-01  2.9233012516336547e+00  4.9423149997886469e+01  1.4623139238363168e+00  9.9416390895762454e+00  5.9301580886596128e-01  1.0294469048908876e+00  7.0113078246061150e+01  3.6221663175468279e+01  1.7460362191794185e+00  3.4464165432759986e-01  1.0567225343056992e-01  9.3066910282425241e-01  8.4630676015960818e-02  2.3287132966024675e+01  2.3228641006415454e+01  6.8942162224539700e+01  1.0088058566912041e+01  7.6474890026340550e+00  1.8897349960557623e+00  7.9236858187905357e+00  1.5801362312685536e+00  1.4264802199462336e+01  6.4003398105375657e+00  2.1100340372955926e+00  9.1843124328300518e-01  5.8773841686095230e-01  1.3503831808562243e+01  6.2560160075937681e+01  3.6914561373517372e+00  2.0076226699238298e+00  1.7332963369637275e+00  2.0536416541811825e+01  6.9452496194732494e-01  9.5188587493848772e-02  1.9157154627286810e+00  9.2823794693482515e+00  8.8366797741860807e+00  5.3896619680851887e-01  1.8368304906821855e+00  6.5707857936340286e+00  4.5784476761053654e+01  1.2985609060436287e+01  6.9830961041555479e+00  1.7302615540194740e+01  2.4170943825058753e+01  1.6613470485223683e+00  2.9830950439441400e-01  5.7707876201534736e-01  3.9918249276391221e-01  2.6909156958773920e+01  1.9159976027170672e-01  2.5609645209303999e-01  2.2612246250550747e+01  6.6031665936911565e+01  5.1184907761080796e+00  1.3690545929532467e+00  1.2925934923001763e+00  9.0687950212621005e-01  2.6478818769959105e+00  1.9710192272861828e+00  2.0950874016123877e-01  5.4337467956337171e-01  7.3327861231480174e-01  2.2501240599892269e+00  2.7718303226231922e-01  5.7538183879193912e-02  2.7765153547816968e+00  1.0990161461835639e-01  2.3679113498847240e-01  1.5873923521876885e+00  9.5255401463205525e-01  2.2949694416359816e+00  1.3871489208823634e+01  9.3669315527179240e+00  1.9887499536972366e+00  1.0963621874523704e+02  1.7682222622947606e+01  2.2995050411440936e+01  4.7924119296923456e-01  3.5060211833298695e+01  2.8615919576065654e+00  3.7398349746429651e+00  1.1996381046159428e+00  3.9287424848006696e+00  1.2362673517871823e+00  1.0058597294946358e+01  2.3527085504849921e+01  2.6697595344214015e-01  1.2172826467670363e+00  1.7163701289671163e+00  1.4635545434384206e-01  1.2697006329879461e+00  7.8395102074682598e+01  5.7378113378507489e+00  5.9972333940998512e-01  8.4230582092972341e+01  9.4627472767086900e+01  2.8195246309167643e-02  3.5745622545016520e+00  3.7696037569254397e+00  2.4598731072597126e+01  1.0945494167632553e+01  1.0863871666950484e+00  2.5014320245532184e-01  4.7296577154733976e-01  3.5705260631439387e+01  4.7172871508143830e+00  5.5144103656849936e+01  6.1228944445193989e-01  3.6699996633964715e-01  5.4395563680037140e-01  1.8042161032127101e+01  2.1745188541559482e+01  7.1563881967754327e+01  6.3377411438992759e+00  4.6754859189936489e+01  9.2827952135127010e+00  9.7113286968792476e+00  3.4746176842090026e+00  3.8054318141919974e+00  5.2987059651106838e+00  1.1900190816493568e+00  1.8154788726998186e-01  3.7656807088516406e+00  5.7587244489431811e+01  1.2845473330254292e+01  1.2660109897187684e+00  1.8263595481234767e+00  8.4640525244922795e+00  1.4987920883266165e+01  4.4417449147526383e-01  3.6966662643493824e+00  1.2239027907044836e+01  1.0581449466442332e-01  3.5615890107263248e-01  3.9150247469016536e-01  2.6686505706824081e-02  5.2063340265445097e