<?xml version="1.0"?>
<VTKFile type="UnstructuredGrid"  version="0.1"  >
<UnstructuredGrid>
<Piece  NumberOfPoints="3311" NumberOfCells="6266">
<Points>
<DataArray  type="Float64"  NumberOfComponents="3"  format="ascii">0 8 0  0 0 0  8 0 0  8 8 0  5.996053456856544 4.125581039058627 0  6 4 0  5.996053456856544 3.874418960941374 0  5.984229402628955 3.749333532871391 0  5.964574501457378 3.625237370828551 0  5.937166322257262 3.502620225670289 0  5.902113032590307 3.381966011250105 0  5.859552971776503 3.263750894630644 0  5.809654104932038 3.148441416869854 0  5.752613360087726 3.036492651796568 0  5.68865585100403 2.928346410042006 0  5.618033988749895 2.824429495415053 0  5.541026485551579 2.725152020502621 0  5.457937254842823 2.630905788142622 0  5.369094211857376 2.542062745157176 0  5.274847979497379 2.458973514448421 0  5.175570504584946 2.381966011250105 0  5.071653589957993 2.31134414899597 0  4.963507348203431 2.247386639912273 0  4.851558583130144 2.19034589506796 0  4.736249105369355 2.140447028223497 0  4.618033988749895 2.097886967409693 0  4.49737977432971 2.062833677742738 0  4.374762629171449 2.035425498542622 0  4.250666467128609 2.015770597371044 0  4.125581039058626 2.003946543143457 0  4 2 0  3.874418960941374 2.003946543143457 0  3.749333532871391 2.015770597371044 0  3.625237370828551 2.035425498542622 0  3.502620225670291 2.062833677742738 0  3.381966011250105 2.097886967409693 0  3.263750894630644 2.140447028223497 0  3.148441416869856 2.19034589506796 0  3.03649265179657 2.247386639912273 0  2.928346410042007 2.311344148995969 0  2.824429495415053 2.381966011250105 0  2.725152020502621 2.458973514448421 0  2.630905788142623 2.542062745157177 0  2.542062745157176 2.630905788142623 0  2.458973514448421 2.725152020502621 0  2.381966011250104 2.824429495415055 0  2.311344148995969 2.928346410042007 0  2.247386639912273 3.036492651796569 0  2.190345895067961 3.148441416869856 0  2.140447028223497 3.263750894630644 0  2.097886967409693 3.381966011250106 0  2.062833677742738 3.502620225670291 0  2.035425498542623 3.62523737082855 0  2.015770597371044 3.749333532871391 0  2.003946543143457 3.874418960941374 0  2 4 0  2.003946543143457 4.125581039058627 0  2.015770597371044 4.250666467128609 0  2.035425498542622 4.374762629171449 0  2.062833677742738 4.49737977432971 0  2.097886967409693 4.618033988749895 0  2.140447028223497 4.736249105369357 0  2.190345895067961 4.851558583130146 0  2.247386639912273 4.96350734820343 0  2.31134414899597 5.071653589957994 0  2.381966011250105 5.175570504584947 0  2.458973514448422 5.274847979497379 0  2.542062745157177 5.369094211857377 0  2.630905788142623 5.457937254842823 0  2.725152020502621 5.541026485551578 0  2.824429495415054 5.618033988749895 0  2.928346410042006 5.68865585100403 0  3.036492651796569 5.752613360087727 0  3.148441416869855 5.809654104932039 0  3.263750894630645 5.859552971776503 0  3.381966011250106 5.902113032590307 0  3.50262022567029 5.937166322257262 0  3.625237370828551 5.964574501457378 0  3.749333532871391 5.984229402628956 0  3.874418960941373 5.996053456856544 0  4 6 0  4.125581039058627 5.996053456856544 0  4.250666467128609 5.984229402628955 0  4.37476262917145 5.964574501457378 0  4.497379774329709 5.937166322257262 0  4.618033988749895 5.902113032590307 0  4.736249105369356 5.859552971776503 0  4.851558583130146 5.809654104932039 0  4.96350734820343 5.752613360087727 0  5.071653589957993 5.688655851004031 0  5.175570504584947 5.618033988749895 0  5.274847979497379 5.541026485551578 0  5.369094211857377 5.457937254842824 0  5.457937254842824 5.369094211857377 0  5.541026485551578 5.274847979497379 0  5.618033988749895 5.175570504584947 0  5.688655851004031 5.071653589957993 0  5.752613360087727 4.96350734820343 0  5.809654104932039 4.851558583130146 0  5.859552971776503 4.736249105369356 0  5.902113032590307 4.618033988749895 0  5.937166322257262 4.497379774329709 0  5.964574501457378 4.37476262917145 0  5.984229402628956 4.250666467128609 0  4 0 0  4 8 0  0 4 0  8 4 0  0 2 0  2 8 0  6 0 0  2 0 0  6 8 0  0 6 0  8 6 0  8 2 0  6.521298246749463 6.521298246749463 0  1 0 0  0 1 0  1.483805613147755 1.483805613147755 0  1.478701753250537 6.521298246749463 0  6.521298246749463 1.478701753250537 0  3 8 0  0 3 0  8 3 0  0 5 0  5 8 0  5 0 0  3 0 0  8 5 0  6.873734575860524 2.615431780543919 0  1.116982513655503 5.247593072616309 0  6.883017486344498 5.247593072616301 0  5.247593072616301 6.883017486344497 0  1.126098722170601 2.617891572298291 0  2.615431780543918 6.873734575860524 0  2.752406927383699 1.116982513655503 0  5.384568219456082 1.126265424139476 0  8 1 0  1 8 0  0 7 0  7 0 0  8 7 0  7 8 0  7.020499434641315 3.646406833984896 0  0.9797566053390774 3.648465816465237 0  3.715288427949091 7.011933824133993 0  4.353593166015106 0.9795005653586846 0  0.6967635209176272 4.5 0  3.5 0.6967635209176218 0  7.275042869145442 4.47475797999556 0  4.511587833362441 7.305805066533029 0  6.221909358080951 5.748059996166043 0  2.210760254282484 6.169547847869656 0  5.847454471986239 1.9044742386454 0  2.256260253799227 1.778178383200799 0  1.980629682828464 0.8249524138953971 0  0.6577483392967642 1.5 0  6.111193299431891 0.7920397023581334 0  0.6549706477735622 6.5 0  6.5 7.345029352226438 0  1.5 7.345029352226438 0  7.175403142852891 6.018842476908514 0  7.207960297641867 1.88880670056811 0  1.20233119856484 0.7548054172032042 0  7.138369340064689 0.8616306599353107 0  7.199038705435568 6.950962679584875 0  0.7268524757237351 7.273147524276265 0  5.787512723837678 6.360832417372146 0  1.584163534320421 5.803133310871846 0  0 0.5 0  0.5 0 0  1.813082410952285 2.362102895128433 0  4.585782825748341 6.620641716166908 0  3.414352878528616 1.379965389869018 0  1.37996538986902 4.585647121471382 0  5.5 8 0  5.795705687727962 7.325709583536691 0  0 5.5 0  0.6742904164633071 5.795705687727965 0  6.608410641840795 4.622450854667636 0  8 7.5 0  2.5 0 0  8 5.5 0  0.6430017150697597 2.16323374265656 0  8 2.5 0  5.5 0 0  2.5 8 0  2.162575541096604 7.357557400929156 0  6.209066202375347 2.498720159134196 0  8 6.5 0  3.213766170612044 6.557595245863999 0  4.810864017456047 1.461836067072289 0  6.474921798096663 3.108973325505615 0  1.461596867478842 3.191209948990856 0  0.6057536094346159 0.6057536094346163 0  3.5 8 0  3.116533476945463 7.331420182036469 0  7.5 0 0  7.50138895891471 1.352981564798016 0  6.5 0 0  4.925848415861192 0.6541083366372827 0  6.636309068723879 2.066043736464307 0  7.345891663362717 3.074151584138809 0  2.034062939515405 6.739458287989336 0  0.6538386597513111 3.07650783347036 0  1.306229817586613 2.051251581737755 0  1.711425920865481 5.22190430062486 0  5.172422863235413 6.301009428280244 0  2.75 0.5305166887675732 0  7.469483311232427 5.25 0  0.5722092524055858 5.06190966273399 0  5.072435773461397 7.430123991012138 0  6.319527671469182 5.122233284663893 0  2.835488340834966 1.696071607164519 0  5.920435248419656 1.334295501631503 0  4.5 0 0  8 3.5 0  7.432272671858859 2.512886319125838 0  5.571830688303236 0.5764100372080221 0  0 3.5 0  5.289311353655532 1.776472779228421 0  8 0.5 0  7.5 8 0  1.5 0 0  7.25 7.504032729381043 0  6.06696156120921 6.840932928848806 0  1.126750463624113 6.102788617506953 0  4.079942410528958 1.456191250380107 0  6.543808749619893 3.920057589471043 0  1.456853858348016 3.920078412765323 0  2.719154100210118 6.345760317541158 0  6.75 0.4820732229428856 0  1.147555431445879 6.942001202471608 0  0 2.5 0  4.033254072103534 6.555375438181171 0  7.459092130175394 3.96491680499676 0  4.023910705003057 0.5449410641392927 0  0.46324372358657 3.75 0  4.000538644612607 7.464791837989975 0  0 7.5 0  0.5 8 0  6.641367242777847 0.9816996559636945 0  2.060098699240311 5.602794388158723 0  8 1.5 0  1.5 8 0  6.5 8 0  0 6.5 0  0 1.5 0  4.5 8 0  8 4.5 0  3.5 0 0  0 4.5 0  5.71241378857682 5.847235604203799 0  1.980356857777504 1.341494340873432 0  6.73841195435907 5.743461321139284 0  7.001901661066728 1.342234074252575 0  2.271256172523833 0.4319561292819105 0  7.568195995774798 5.728421007950713 0  1.079620717833623 4.213724869256849 0  3.785914285080838 1.07957548172746 0  1.75 0.4068334879001349 0  7.593198924126513 6.25 0  2.644210543189512 7.51442503308679 0  1.759107121904632 1.881466257766474 0  7.598221819062164 0.75 0  7.25 0.4017781809378356 0  7.016697196788522 6.489226510093869 0  0.8135924992537802 1.042303878660207 0  7.590765621254587 6.709933711568556 0  6.972320805074426 4.114496419277549 0  0.6689706016379435 2.619626936075973 0  4.490317171939625 0.4719794785870491 0  7.586130070956817 7.194177964358491 0  1.564887898956812 2.745941764426699 0  7.45216884474369 3.51322113522411 0  7.58575169794429 4.808833363985082 0  3.538045596929494 7.533919544016318 0  4.268777385438645 6.932912710296469 0  6.25 0.3687278481717181 0  6.915054373976157 3.207810438216838 0  7.002360785621788 4.82228450274451 0  0.3972487693887257 4.181902501602563 0  0.9482937176147312 4.850514130935556 0  3.25 0.3483817604588109 0  3.078724571458289 0.822405414577691 0  1.086245288390012 5.675597706514477 0  1.074212327675575 1.667136181084258 0  2.267204536760128 2.246625033644231 0  4.821181984497242 6.992731518467086 0  2.439850702774412 0.8250274309749102 0  7.174972522369596 5.560160665184872 0  5.904966268715267 5.477643303883068 0  6.207512920818998 6.198213208971735 0  2.504889937937569 1.447997919101883 0  0.3997445887406886 1.156770199073539 0  0.3288741696483821 1.75 0  1.637615877582278 1.083042277773219 0  2.524803464880197 5.901811913432696 0  5.794604146187496 2.343782137192302 0  6.836411413561036 7.606548808898578 0  1.826315648259891 7.614255845340183 0  1.090927571027496 7.551079899216545 0  6.140889361672077 7.589220379873516 0  1.066148535748459 6.537245249458406 0  0.410779620126483 6.140889361672079 0  0.4489201007834544 6.909072428972504 0  6.470724483843425 6.932131515022222 0  1.638960019540123 6.929295531772199 0  5.660873205465542 6.931985632892141 0  3.623652679878191 6.609113767281198 0  7.62
[...]
<PointData  Scalars="f_24"> 
<DataArray  type="Float64"  Name="f_24"  format="ascii">1.9650399999999999e+02  4.5040000000000013e+00  6.8504000000000005e+01  2.6050400000000002e+02  9.1517913787001490e+01  8.8504000000000005e+01  8.5490023912187397e+01  8.2487507365430503e+01  7.9507186967991245e+01  7.6558989273969601e+01  7.3652020553225185e+01  7.0794570735661850e+01  6.7994130885338052e+01  6.5257423343903454e+01  6.2590443482780088e+01  5.9998511822460657e+01  5.7486335118132629e+01  5.5058074876048266e+01  5.2717421656748485e+01  5.0467673441084045e+01  4.8311816284181887e+01  4.6252605461827521e+01  4.4292645323437995e+01  4.2434466105666964e+01  4.0680596030004416e+01  3.9033627105331583e+01  3.7496273180638852e+01  3.6071418941947542e+01  3.4762158718448454e+01  3.3571824153169892e+01  3.2503999999999998e+01  3.1562527528231865e+01  3.0751495244390718e+01  3.0075216875204351e+01  2.9538196791363493e+01  2.9145083285333261e+01  2.8900610344094734e+01  2.8809528775584660e+01  2.8876527752183097e+01  2.9106148022499621e+01  2.9502688210822743e+01  3.0070105769125977e+01  3.0811914267030481e+01  3.1731078798563118e+01  3.2829911349307373e+01  3.4109968002462352e+01  3.5571949866715634e+01  3.7215609582499859e+01  3.9039665206425461e+01  4.1041723187237800e+01  4.3218212031780290e+01  4.5564328117853428e+01  4.8073994944673188e+01  5.0739836923367228e+01  5.3553168602482714e+01  5.6504000000000005e+01  5.9581058477296800e+01  6.2771827345540451e+01  6.6062601144902743e+01  6.9438557285679494e+01  7.2883843491775238e+01  7.6381680244966901e+01  7.9914477196672436e+01  8.3463962296264526e+01  8.7011322184699353e+01  9.0537352222539781e+01  9.4022614365181582e+01  9.7447600967717236e+01  1.0079290249948599e+02  1.0403937707560175e+02  1.0716831967081772e+02  1.1016162887069305e+02  1.1300196903639399e+02  1.1567292581232253e+02  1.1815915298936687e+02  1.2044650884966802e+02  1.2252218025971206e+02  1.2437479294515848e+02  1.2599450657058061e+02  1.2737309345734593e+02  1.2850399999999999e+02  1.2938239008228396e+02  1.3000517004463831e+02  1.3037099501190167e+02  1.3048025664898742e+02  1.3033505266966631e+02  1.2993913867527655e+02  1.2929786314240485e+02  1.2841808660764886e+02  1.2730808631002101e+02  1.2597744774417687e+02  1.2443694474755981e+02  1.2269840988920404e+02  1.2077459704520241e+02  1.1867903813400683e+02  1.1642589604253810e+02  1.1402981580076379e+02  1.1150577605766816e+02  1.0886894287558506e+02  1.0613452779339092e+02  1.0331765201322015e+02  1.0043321844179567e+02  9.7495793168220814e+01  9.4519497787603726e+01  2.0504000000000001e+01  2.1250399999999999e+02  5.2504000000000005e+01  1.1650400000000000e+02  1.6504000000000001e+01  2.0050399999999999e+02  4.0504000000000005e+01  8.5040000000000013e+00  2.3250399999999999e+02  1.1250400000000000e+02  1.7650399999999999e+02  8.0504000000000005e+01  2.6046818954924900e-01  5.5040000000000013e+00  7.5040000000000013e+00  1.8310907359585467e-02  1.9985671342995456e-01  7.9711529476066800e-02  2.0550399999999999e+02  3.1504000000000005e+01  9.5504000000000005e+01  7.9504000000000005e+01  2.2150399999999999e+02  2.9504000000000001e+01  1.3504000000000001e+01  1.4350399999999999e+02  4.1238890579799625e-01  4.8750508861263414e-01  7.7577430991777918e-01  1.0620569020820361e+00  1.5581269639512810e-01  8.6866291012717745e-01  1.1225510806410531e-01  1.9237205255419684e-01  7.1504000000000005e+01  1.9750399999999999e+02  1.5150399999999999e+02  5.3504000000000005e+01  2.1550399999999999e+02  2.4550399999999999e+02  1.0755210113663569e+00  5.3161372974940446e-01  1.9060111878851296e+00  3.0049460497255981e-01  1.9796356066716982e+00  5.0940734829562773e-01  3.3258255793256866e+00  6.5819476881047381e+00  1.4709746153020991e+00  1.4404129292609864e+00  7.6232729580658165e-01  3.8858248588005889e-01  1.2999115627744656e-01  4.1564764363889972e-01  7.4779076136793587e-01  4.5729082636891150e+00  8.7267184725858815e+00  7.0904318493717717e+00  2.6438889331265951e+00  1.4298592606386582e+00  1.4581688532684903e-01  1.4929820163889018e+00  4.5948905030196565e+00  8.3592177330873270e+00  8.3339940184465622e-01  4.6274991421700018e-01  5.2540000000000013e+00  4.7540000000000013e+00  7.0701796753654722e-01  3.6056290124867925e+00  8.1503253682261489e-01  1.8822648065316803e+00  2.2675399999999999e+02  7.3995120701278259e+00  9.5254000000000005e+01  3.4172655826147462e+00  2.8557236081034247e+00  2.3725399999999999e+02  1.0754000000000001e+01  1.5925399999999999e+02  7.1109324061341539e-01  8.7254000000000005e+01  3.4754000000000005e+01  2.0275399999999999e+02  7.6322990520475438e+00  1.7708125207580265e+00  1.9525399999999999e+02  3.5825113396903485e+00  1.2099881533650492e+00  2.5676375074087052e+00  1.3449919759126638e+00  4.5677078457157411e-01  2.0875399999999999e+02  6.9920837747637323e+00  6.0754000000000005e+01  5.8558768579534153e+00  4.6754000000000005e+01  1.0176040312141288e+00  1.4857472461028851e-01  3.4829881706572796e+00  4.0061364494262808e-01  1.1810707889229455e+00  5.3409927695324731e-02  3.4336894174480590e+00  5.8024219032157198e+00  8.0355214596483582e-01  9.8971028689583438e+00  4.4098365701681175e+00  1.2424039167408079e+01  4.9069741469721730e+00  1.3421317500523904e+00  9.7781677308806117e-02  2.4754000000000001e+01  1.0525400000000000e+02  4.8460386938055500e+00  1.9008371861025755e+00  4.1254000000000005e+01  2.1705344272452640e+00  6.9254000000000005e+01  2.5275399999999996e+02  6.7540000000000013e+00  2.3159319367078318e+01  6.6859112071824156e-01  4.1551178271663924e-01  1.8513479221179940e+00  4.7876641328579037e+00  3.1585436666430313e+00  3.2280821581317833e+00  4.3917727940925015e+00  1.3162801947102978e+00  2.3254000000000001e+01  6.7983822096876487e+00  7.2178700115428915e+00  1.3156782793219939e+00  4.5756583991914290e+00  1.4023369609724405e+01  1.7325399999999999e+02  1.9675399999999999e+02  3.9270337990201559e-01  6.0447253747883760e+00  7.5254000000000005e+01  1.9875399999999999e+02  2.3875399999999999e+02  1.3125399999999999e+02  1.1254000000000001e+01  2.1675399999999999e+02  1.2925399999999999e+02  1.6754000000000001e+01  6.5254000000000005e+01  7.6568910445581686e+00  3.5414233624177241e-02  4.4005541501801237e-01  5.0975173443407706e-01  1.0770969728325981e+00  1.8455283081440406e+01  6.9282337614132583e-01  3.0641653849630601e-01  9.8096183977138807e-01  2.3781923138530900e+01  1.7490698895223659e+01  1.0686805123719074e-01  9.9720917827305069e+00  8.5176286775321994e+00  1.4026620091798196e+00  1.5684962439712016e-01  2.5507291110941910e+01  1.1700785130336144e+00  8.6755552114632817e-01  2.2995357975721182e+00  2.9750305425828273e+01  7.6542076862740294e-01  6.4074395983087946e+00  1.6956174893728150e+01  1.9657646088395829e+01  1.8080987484000883e+00  6.3500296251659316e+00  7.5182247777732980e-01  1.1483005503866455e+00  7.5610512914372237e+00  7.5678501749696347e-01  2.5755644683859815e+00  2.5065047377214200e-01  4.7394742195602313e-01  6.2825381835528646e-02  2.6741443531884750e+00  1.7299537369298956e+00  1.6717966139511489e-01  2.4905569740490261e+00  1.3352005403177397e+01  3.6145637711357737e-01  1.9401387632364203e-01  1.1431453999996692e+00  2.5607481491885280e+00  3.4831705189072894e-02  1.2433455863124559e+01  5.3275225187613158e+00  3.3022925478014386e+01  2.8424074117708063e+01  2.0746225057264596e+01  2.9083642792991419e+01  6.9930821669743970e-01  1.4776139260590051e+01  1.5609961084418179e+01  1.1397101192355827e+00  8.8313759905439215e-01  1.0962055895695288e+00  4.3821175505434180e+00  1.1899713477053050e+01  2.4944251808166465e-01  3.5578333035555226e-01  8.1002603949293874e+00  2.4383305458407084e-01  6.2473034990755840e+00  1.1207965233271793e+00  3.8638860893149541e+01  3.7288475333348192e-01  4.2737718089558013e-01  3.6292341300807711e-02  1.4365952696199252e-01  4.8729505007294405e+00  1.4127314997172959e+01  2.3257570090196961e-01  3.3652387355987751e-01  8.8743085055477378e-01  1.1265569143581441e-01  2.7650638594954828e+00  6.3862591868531493e-01  1.5805922973935045e+00  7.6563833578233664e+00  1.0981251791600017e+00  2.9517055327398634e-01  5.9428195438545615e+00  4.3142710755949265e+00  1.3061665487792157e+01  3.8399211166543935e+01  3.3301088151464107e+01  1.9601686283046575e+01  6.2754494230355693e+00  1.7356873214608637e+01  4.3156801230675939e+00  1.0256044099273456e+00  2.0719825043299956e+01  5.5691362557922965e+01  9.4179739805343687e-01  1.5468545367843234e+01  1.7794439867125181e-01  1.1107796858954680e+01  5.1561580412302092e+01  5.6895788515915825e+01  3.6149986576988525e+01  5.5279200801591180e+01  9.5923903469343275e-01  4.6551013837281863e+00  1.5991683956042026e+01  5.6210596605405891e+00  1.7931933368894450e+00  1.3601305889651915e+01  1.1769965703249956e+00  8.0152267863660338e+00  5.7187843315277542e-01  1.0920958394997768e+00  1.7562606896043254e-01  4.7635127870316269e+00  3.8869525882519092e+01  1.3743141239961709e+00  1.4074356830493151e+00  1.7506158596868687e+01  1.5725592221861669e+01  3.8584858449789983e+00  3.6064236042501667e+00  7.7687824132885428e+00  8.4845058531538609e+00  1.3004461870179413e+00  9.8091917662249379e+00  2.3201555906290263e+00  5.2515832653425392e+00  2.8338735229028266e+01  2.2640438658934015e-01  2.1500615890366976e+00  5.6995895270991056e+01  1.5054792101860155e+00  1.4425615225434965e+00  1.4078415423737146e+01  4.8619284397930489e+00  4.3061481632660659e+00  1.8502720093506320e+00  2.9079872361162939e+00  5.5518886697872389e+00  1.5546991330437228e+00  5.7739155818348216e-02  2.2701388265818459e-01  2.2542383977887447e+01  2.7875552030412050e+00  1.7920074852772841e-01  1.8741431842047568e+01  1.3219453114534789e+00  1.1224565136226612e+00  5.7869102310925271e+00  5.9971979681416157e+00  5.7709498191060131e+00  1.3376106579020648e+00  1.8487111451056195e+00  1.1911378455667423e+00  3.5228224175105116e-01  8.5940626214576921e-01  1.4148496548509376e-01  3.2557188330196313e-01  5.6261495550034213e-01  3.1674961706601829e-01  9.0255339161566939e-01  4.2359231049895557e-01  5.4007274853630050e-01  2.1893178162037323e+01  3.3362386924850945e-01  5.3417511040701404e-01  6.2552845359439901e-01  8.4259410840588245e-01  2.8317689250140871e-01  2.1056649999999999e+02  4.4000966303445622e+01  3.6268160377236470e+01  2.4509724462462188e+01  1.4971557951218559e+00  6.4893667654787512e-01  3.9829759163744676e+01  1.0467516564127370e+01  3.4047019174061117e+00  9.4829918010763237e-02  3.0070086045776501e+00  1.3890141669657487e+01  3.7899791943466967e+00  4.1173641055019017e+00  9.5327486887413534e-02  5.3768587048105110e-01  7.2132669168564254e+00  2.2063535663527361e+01  3.1273105471202500e-01  2.1517522839469606e+01  1.4999807722962590e+01  4.6946048769369053e+00  1.8143984227722736e+00  4.6876483973180285e+00  1.7521143828542560e+00  1.6672419570666910e+00  1.3973395218536851e+01  1.4119149999999999e+02  1.7025192516967094e+00  1.4124344511712397e-01  1.4746537910650243e+01  3.7034001294103336e-01  2.6732866253033999e-01  1.7665468973454965e+00  2.8732538410050856e+00  1.8115594463956091e+00  1.4479530430387841e-01  3.4549951367128802e-02  4.3475098513242706e+01  1.9339218641475608e+01  2.0341262302277357e+01  6.2071257600537555e+00  2.8659697515101441e+00  3.3714068498277030e+01  3.3645532025514235e+01  2.3827907775451709e+00  1.9801629478971858e-01  2.3243292694494051e+00  5.4506134748675699e+00  4.2959056360981895e-01  3.6222945792234790e-01  7.1201218038270317e+00  1.9160311078219063e+01  4.9248950503697858e-01  3.6422182347156140e-01  2.0119730292743907e+00  9.4872821254350329e-02  9.8537012475711201e+00  4.1820897691147058e-01  3.4466485141092145e+00  2.1798712791046457e-01  1.9861458307570740e-01  2.9500190303979381e+00  5.3902678449283457e+01  9.1682141257897634e+00  6.1476780514023666e-01  8.2243324562049800e+00  1.3897722656459474e-01  9.8052953381959418e-01  3.0427588783252393e+00  2.0387445530210279e+01  2.7922267438224888e+00  2.4869149999999999e+02  1.2169150000000000e+02  2.3556649999999999e+02  7.0432460301731881e-01  4.6974659180766949e+00  6.2132336408038369e-01  4.0752983225968969e-01  2.5656650000000002e+02  1.3443956935468492e+01  4.4690493265661884e+00  3.8280599736716098e-01  1.9805662005661548e+00  3.8601438632012780e-01  2.0240494207528910e+00  1.0246057211942981e+01  7.2129516866914315e+01  6.3222014969946997e+01  2.6883446237018538e-01  1.8932129378047645e+01  5.9564737793722209e+00  7.1414130866591767e+00  1.1907627860816823e+00  1.3504269578481523e+00  1.1632430298763468e+01  3.5060396464639676e+00  1.5586828704140732e-01  1.7956877473043333e+00  1.8420403286297358e+00  1.0529357781002868e+00  5.3245791210249016e-01  9.8472908587234287e-01  2.1244047788552572e-01  2.5199198629094005e-01  5.7844536834746281e-02  3.0008010676767181e+01  1.0368427856841547e+00  2.0760882930745256e-01  1.1038585498337840e+01  5.0066500000000005e+01  1.1791484965493094e+01  2.9958607705403457e+00  9.8356551322516839e-01  5.5960989390370797e-01  2.9351959537157725e+01  5.4575739435533190e+00  3.0271115318587567e+00  7.5820947468532740e+00  2.7268691722327961e+01  1.2066500000000001e+01  2.1582617565328349e+01  1.9439939950155414e+00  8.6421466576280537e-01  1.6952983986344152e+00  7.3191500000000005e+01  8.8701292419552291e-01  3.1186428417135645e+00  8.8382807881919573e-02  6.7412878510466587e+00  2.0406649999999999e+02  2.7013028667443354e+01  3.7017609603377042e+00  3.9483604183678329e+00  1.9743503270159424e+00  7.9274690404851667e-01  2.2409447536466875e+01  9.1915000000000013e+00  1.2135776138969829e+00  1.0319256910998403e+01  4.6691500000000005e+01  1.3050287956634762e+01  1.2269150000000000e+02  1.3202419641593917e+00  1.4481790685485374e+01  1.9806649999999999e+02  3.8633359322128740e+01  1.6769149999999999e+02  1.0444557410952624e+01  5.5667647824983268e-01  2.1498179092095286e+00  7.5665000000000013e+00  2.9130693086816628e-01  7.7341154524570683e+00  1.8432583566569516e+01  1.7642117027610600e+00  2.2857693445131213e+00  2.4206649999999999e+02  3.4360991120086283e+01  4.6152793834345320e-02  2.1091175632577109e-02  5.9157893353826485e-01  5.8569200360127360e-01  7.4412052690540142e-01  3.7523860891022699e-02  2.2619149999999999e+02  5.0275617345466612e+00  2.9130545093027097e-02  6.4566500000000005e+01  6.8691500000000005e+01  5.1050348685233722e+00  3.0056625678447091e-01  2.8315606138227366e+01  6.8495150718077713e-02  1.4007319742315330e-01  1.5119149999999999e+02  9.5665000000000013e+00  1.1334511478013852e+01  2.3509287468573827e+00  5.8691500000000005e+01  4.5565338190661164e-01  8.9470206666302277e-01  4.3261539082658631e+00  5.9128003184100628e+01  1.0540576844869278e+01  7.5649599922217436e-01  1.9956649999999999e+02  3.0895277104665104e+00  7.2903294209521476e+00  6.4107635642397787e-01  1.4310928236755529e+00  1.9953452325934946e+00  6.5409137901850860e+00  2.0519149999999999e+02  5.3638074482966566e+01  1.4603781886644871e+01  5.4074641738432206e+01  1.8628726279264853e+01  6.4359917212682802e+00  4.2574305685667690e+00  1.3619149999999999e+02  1.0369150000000000e+02  2.0706649999999999e+02  1.1069150000000000e+02  3.7566500000000005e+01  4.5665000000000013e+00  4.6915000000000013e+00  6.1915000000000013e+00  2.0156649999999999e+02  2.7066500000000001e+01  2.1456649999999999e+02  1.8469149999999999e+02  5.0665000000000013e+00  1.9656649999999999e+02  2.2956649999999999e+02  9.1191500000000005e+01  1.0019150000000000e+02  1.8566500000000001e+01  1.6219149999999999e+02  1.9706649999999999e+02  8.3691500000000005e+01  1.9691500000000001e+01  2.7191500000000001e+01  3.6191500000000005e+01  7.2191500000000005e+01  2.1906649999999999e+02  6.0665000000000013e+00  3.2066500000000005e+01  7.7691500000000005e+01  1.3691500000000001e+01  1.5066500000000001e+01  4.3566500000000005e+01  5.7066500000000005e+01  7.0191500000000005e+01  1.8569149999999999e+02  2.2566500000000001e+01  8.7191500000000005e+01  2.2406649999999999e+02  2.4906649999999999e+02  1.3114981466106486e+00  1.8372701685786802e-01  4.5635634447524200e+00  3.9072261494649085e-01  3.5854025686901490e+00  2.8781717426696751e+00  5.5161183113622536e-01  8.1254423813498747e+01  8.6961469691107129e-01  2.7942419138557462e+00  1.5021918864581112e+00  1.8272871613775457e+00  5.7036246062589513e-01  1.9836688517124759e+00  2.7568584108907306e+01  6.5556649436271541e-01  9.7801511097386769e+00  5.0365205787487257e+00  2.2049697071064926e+01  8.6376313193958154e+00  1.3230525936282276e+00  2.7032432930737105e-01  1.1368010548231200e+00  3.0864154359753617e+00  5.3591820050501340e+01  3.5837959707744088e-01  2.9865370012795978e-01  3.9129112206490726e+00  8.1876080925892414e-01  1.2602930967548807e+00  4.6401721690291325e-01  2.5794031895320151e+00  4.9180714444402547e+01  1.4523414627857567e+00  9.9024220228859150e+00  5.7953180575355856e-01  1.0207453647850993e+00  6.9774293604452168e+01  3.5975124102673917e+01  1.7344566309843354e+00  3.0704863914491565e-01  9.6629468797780962e-02  9.2510471830551655e-01  7.4313628260922235e-02  2.2916278199710355e+01  2.2909614741515355e+01  6.8611456186999590e+01  1.0015147225906029e+01  7.3576340616520355e+00  1.8248036930466063e+00  7.8842642597466144e+00  1.5674049455643839e+00  1.4010473566943714e+01  6.1132979735059498e+00  1.7984649752087583e+00  8.9085034944421082e-01  5.8524376637668374e-01  1.3441531982803301e+01  6.2273653207234844e+01  3.6492471550979158e+00  1.9420715302636589e+00  1.6940326592046178e+00  2.0218205565506040e+01  6.8634110626559630e-01  9.0946638911406197e-02  1.8586118657428541e+00  9.1304724334948091e+00  8.5566168632248321e+00  5.0763475830788574e-01  1.8180790129279700e+00  6.5315454634894881e+00  4.5501626278932314e+01  1.2922879282869756e+01  6.9362816088577937e+00  1.7016007659334349e+01  2.4074322739238603e+01  1.6231033225670934e+00  2.9091676659052801e-01  5.6212302664903502e-01  3.8647805973546356e-01  2.6549230204113162e+01  1.7944743106867192e-01  2.5204801941618726e-01  2.2311384545164710e+01  6.5734950542237812e+01  5.0703199001739412e+00  1.3522570855685097e+00  1.2797872541904309e+00  8.9769596368407611e-01  2.5831899471619790e+00  1.9614105868149654e+00  2.0824199661084608e-01  5.3932895592413399e-01  7.2750495004299121e-01  2.2081962600110407e+00  2.6501908128296842e-01  5.4512641907335783e-02  2.7381768519130576e+00  1.0630255188142447e-01  2.2972596095876247e-01  1.5643792683890654e+00  9.4769524662597993e-01  2.2445739382292706e+00  1.3611479599210080e+01  9.2862422733810437e+00  1.9756330804781215e+00  1.0922098286259040e+02  1.7454562253665859e+01  2.2710575764689821e+01  4.6474148318194036e-01  3.4803609644808226e+01  2.8101001384740272e+00  3.6799016227948820e+00  1.1890219387544385e+00  3.8904461361526210e+00  1.2242403969037905e+00  9.7841646958579052e+00  2.3418068306797803e+01  2.5955759858556565e-01  1.2102923299830113e+00  1.7049461699224442e+00  1.3888349672837824e-01  1.2582702119461613e+00  7.8015031300460350e+01  5.4125128877230093e+00  5.9672310741103229e-01  8.3865383824889165e+01  9.4251189856262357e+01  2.5162624314455762e-02  3.5103543989498545e+00  3.7237952504983785e+00  2.4307969834655029e+01  1.0865413793056835e+01  1.0658601045390252e+00  2.4403851217831529e-01  4.6165958632017090e-01  3.5392115745742714e+01  4.5705482798562684e+00  5.4768047528715584e+01  6.0865146339618426e-01  3.6353974639806225e-01  5.3711142633526932e-01  1.7969279195654117e+01  2.1655407017197884e+01  7.1269402008869861e+01  6.2886987828107674e+00  4.6375068780793349e+01  9.2025680853765142e+00  9.4133204204000691e+00  3.4589097956099675e+00  3.7885874619538260e+00  5.2600727723952829e+00  1.1707540647396986e+00  1.7848178005411838e-01  3.4365019008554203e+00  5.7253743962171377e+01  1.2531280934179197e+01  1.2490373426877477e+00  1.8041840608125725e+00  8.3382167815090451e+00  1.4682504616009378e+01  4.1418756154756509e-01  3.3171506887166324e+00  1.2158008641146516e+01  9.4289096880438336e-02  3.5295086820382171e-01  3.8732407419410420e-01  2.5106970448782767e-02  5.1379901576389644e