<?xml version="1.0"?>
<VTKFile type="UnstructuredGrid"  version="0.1"  >
<UnstructuredGrid>
<Piece  NumberOfPoints="3311" NumberOfCells="6266">
<Points>
<DataArray  type="Float64"  NumberOfComponents="3"  format="ascii">0 8 0  0 0 0  8 0 0  8 8 0  5.996053456856544 4.125581039058627 0  6 4 0  5.996053456856544 3.874418960941374 0  5.984229402628955 3.749333532871391 0  5.964574501457378 3.625237370828551 0  5.937166322257262 3.502620225670289 0  5.902113032590307 3.381966011250105 0  5.859552971776503 3.263750894630644 0  5.809654104932038 3.148441416869854 0  5.752613360087726 3.036492651796568 0  5.68865585100403 2.928346410042006 0  5.618033988749895 2.824429495415053 0  5.541026485551579 2.725152020502621 0  5.457937254842823 2.630905788142622 0  5.369094211857376 2.542062745157176 0  5.274847979497379 2.458973514448421 0  5.175570504584946 2.381966011250105 0  5.071653589957993 2.31134414899597 0  4.963507348203431 2.247386639912273 0  4.851558583130144 2.19034589506796 0  4.736249105369355 2.140447028223497 0  4.618033988749895 2.097886967409693 0  4.49737977432971 2.062833677742738 0  4.374762629171449 2.035425498542622 0  4.250666467128609 2.015770597371044 0  4.125581039058626 2.003946543143457 0  4 2 0  3.874418960941374 2.003946543143457 0  3.749333532871391 2.015770597371044 0  3.625237370828551 2.035425498542622 0  3.502620225670291 2.062833677742738 0  3.381966011250105 2.097886967409693 0  3.263750894630644 2.140447028223497 0  3.148441416869856 2.19034589506796 0  3.03649265179657 2.247386639912273 0  2.928346410042007 2.311344148995969 0  2.824429495415053 2.381966011250105 0  2.725152020502621 2.458973514448421 0  2.630905788142623 2.542062745157177 0  2.542062745157176 2.630905788142623 0  2.458973514448421 2.725152020502621 0  2.381966011250104 2.824429495415055 0  2.311344148995969 2.928346410042007 0  2.247386639912273 3.036492651796569 0  2.190345895067961 3.148441416869856 0  2.140447028223497 3.263750894630644 0  2.097886967409693 3.381966011250106 0  2.062833677742738 3.502620225670291 0  2.035425498542623 3.62523737082855 0  2.015770597371044 3.749333532871391 0  2.003946543143457 3.874418960941374 0  2 4 0  2.003946543143457 4.125581039058627 0  2.015770597371044 4.250666467128609 0  2.035425498542622 4.374762629171449 0  2.062833677742738 4.49737977432971 0  2.097886967409693 4.618033988749895 0  2.140447028223497 4.736249105369357 0  2.190345895067961 4.851558583130146 0  2.247386639912273 4.96350734820343 0  2.31134414899597 5.071653589957994 0  2.381966011250105 5.175570504584947 0  2.458973514448422 5.274847979497379 0  2.542062745157177 5.369094211857377 0  2.630905788142623 5.457937254842823 0  2.725152020502621 5.541026485551578 0  2.824429495415054 5.618033988749895 0  2.928346410042006 5.68865585100403 0  3.036492651796569 5.752613360087727 0  3.148441416869855 5.809654104932039 0  3.263750894630645 5.859552971776503 0  3.381966011250106 5.902113032590307 0  3.50262022567029 5.937166322257262 0  3.625237370828551 5.964574501457378 0  3.749333532871391 5.984229402628956 0  3.874418960941373 5.996053456856544 0  4 6 0  4.125581039058627 5.996053456856544 0  4.250666467128609 5.984229402628955 0  4.37476262917145 5.964574501457378 0  4.497379774329709 5.937166322257262 0  4.618033988749895 5.902113032590307 0  4.736249105369356 5.859552971776503 0  4.851558583130146 5.809654104932039 0  4.96350734820343 5.752613360087727 0  5.071653589957993 5.688655851004031 0  5.175570504584947 5.618033988749895 0  5.274847979497379 5.541026485551578 0  5.369094211857377 5.457937254842824 0  5.457937254842824 5.369094211857377 0  5.541026485551578 5.274847979497379 0  5.618033988749895 5.175570504584947 0  5.688655851004031 5.071653589957993 0  5.752613360087727 4.96350734820343 0  5.809654104932039 4.851558583130146 0  5.859552971776503 4.736249105369356 0  5.902113032590307 4.618033988749895 0  5.937166322257262 4.497379774329709 0  5.964574501457378 4.37476262917145 0  5.984229402628956 4.250666467128609 0  4 0 0  4 8 0  0 4 0  8 4 0  0 2 0  2 8 0  6 0 0  2 0 0  6 8 0  0 6 0  8 6 0  8 2 0  6.521298246749463 6.521298246749463 0  1 0 0  0 1 0  1.483805613147755 1.483805613147755 0  1.478701753250537 6.521298246749463 0  6.521298246749463 1.478701753250537 0  3 8 0  0 3 0  8 3 0  0 5 0  5 8 0  5 0 0  3 0 0  8 5 0  6.873734575860524 2.615431780543919 0  1.116982513655503 5.247593072616309 0  6.883017486344498 5.247593072616301 0  5.247593072616301 6.883017486344497 0  1.126098722170601 2.617891572298291 0  2.615431780543918 6.873734575860524 0  2.752406927383699 1.116982513655503 0  5.384568219456082 1.126265424139476 0  8 1 0  1 8 0  0 7 0  7 0 0  8 7 0  7 8 0  7.020499434641315 3.646406833984896 0  0.9797566053390774 3.648465816465237 0  3.715288427949091 7.011933824133993 0  4.353593166015106 0.9795005653586846 0  0.6967635209176272 4.5 0  3.5 0.6967635209176218 0  7.275042869145442 4.47475797999556 0  4.511587833362441 7.305805066533029 0  6.221909358080951 5.748059996166043 0  2.210760254282484 6.169547847869656 0  5.847454471986239 1.9044742386454 0  2.256260253799227 1.778178383200799 0  1.980629682828464 0.8249524138953971 0  0.6577483392967642 1.5 0  6.111193299431891 0.7920397023581334 0  0.6549706477735622 6.5 0  6.5 7.345029352226438 0  1.5 7.345029352226438 0  7.175403142852891 6.018842476908514 0  7.207960297641867 1.88880670056811 0  1.20233119856484 0.7548054172032042 0  7.138369340064689 0.8616306599353107 0  7.199038705435568 6.950962679584875 0  0.7268524757237351 7.273147524276265 0  5.787512723837678 6.360832417372146 0  1.584163534320421 5.803133310871846 0  0 0.5 0  0.5 0 0  1.813082410952285 2.362102895128433 0  4.585782825748341 6.620641716166908 0  3.414352878528616 1.379965389869018 0  1.37996538986902 4.585647121471382 0  5.5 8 0  5.795705687727962 7.325709583536691 0  0 5.5 0  0.6742904164633071 5.795705687727965 0  6.608410641840795 4.622450854667636 0  8 7.5 0  2.5 0 0  8 5.5 0  0.6430017150697597 2.16323374265656 0  8 2.5 0  5.5 0 0  2.5 8 0  2.162575541096604 7.357557400929156 0  6.209066202375347 2.498720159134196 0  8 6.5 0  3.213766170612044 6.557595245863999 0  4.810864017456047 1.461836067072289 0  6.474921798096663 3.108973325505615 0  1.461596867478842 3.191209948990856 0  0.6057536094346159 0.6057536094346163 0  3.5 8 0  3.116533476945463 7.331420182036469 0  7.5 0 0  7.50138895891471 1.352981564798016 0  6.5 0 0  4.925848415861192 0.6541083366372827 0  6.636309068723879 2.066043736464307 0  7.345891663362717 3.074151584138809 0  2.034062939515405 6.739458287989336 0  0.6538386597513111 3.07650783347036 0  1.306229817586613 2.051251581737755 0  1.711425920865481 5.22190430062486 0  5.172422863235413 6.301009428280244 0  2.75 0.5305166887675732 0  7.469483311232427 5.25 0  0.5722092524055858 5.06190966273399 0  5.072435773461397 7.430123991012138 0  6.319527671469182 5.122233284663893 0  2.835488340834966 1.696071607164519 0  5.920435248419656 1.334295501631503 0  4.5 0 0  8 3.5 0  7.432272671858859 2.512886319125838 0  5.571830688303236 0.5764100372080221 0  0 3.5 0  5.289311353655532 1.776472779228421 0  8 0.5 0  7.5 8 0  1.5 0 0  7.25 7.504032729381043 0  6.06696156120921 6.840932928848806 0  1.126750463624113 6.102788617506953 0  4.079942410528958 1.456191250380107 0  6.543808749619893 3.920057589471043 0  1.456853858348016 3.920078412765323 0  2.719154100210118 6.345760317541158 0  6.75 0.4820732229428856 0  1.147555431445879 6.942001202471608 0  0 2.5 0  4.033254072103534 6.555375438181171 0  7.459092130175394 3.96491680499676 0  4.023910705003057 0.5449410641392927 0  0.46324372358657 3.75 0  4.000538644612607 7.464791837989975 0  0 7.5 0  0.5 8 0  6.641367242777847 0.9816996559636945 0  2.060098699240311 5.602794388158723 0  8 1.5 0  1.5 8 0  6.5 8 0  0 6.5 0  0 1.5 0  4.5 8 0  8 4.5 0  3.5 0 0  0 4.5 0  5.71241378857682 5.847235604203799 0  1.980356857777504 1.341494340873432 0  6.73841195435907 5.743461321139284 0  7.001901661066728 1.342234074252575 0  2.271256172523833 0.4319561292819105 0  7.568195995774798 5.728421007950713 0  1.079620717833623 4.213724869256849 0  3.785914285080838 1.07957548172746 0  1.75 0.4068334879001349 0  7.593198924126513 6.25 0  2.644210543189512 7.51442503308679 0  1.759107121904632 1.881466257766474 0  7.598221819062164 0.75 0  7.25 0.4017781809378356 0  7.016697196788522 6.489226510093869 0  0.8135924992537802 1.042303878660207 0  7.590765621254587 6.709933711568556 0  6.972320805074426 4.114496419277549 0  0.6689706016379435 2.619626936075973 0  4.490317171939625 0.4719794785870491 0  7.586130070956817 7.194177964358491 0  1.564887898956812 2.745941764426699 0  7.45216884474369 3.51322113522411 0  7.58575169794429 4.808833363985082 0  3.538045596929494 7.533919544016318 0  4.268777385438645 6.932912710296469 0  6.25 0.3687278481717181 0  6.915054373976157 3.207810438216838 0  7.002360785621788 4.82228450274451 0  0.3972487693887257 4.181902501602563 0  0.9482937176147312 4.850514130935556 0  3.25 0.3483817604588109 0  3.078724571458289 0.822405414577691 0  1.086245288390012 5.675597706514477 0  1.074212327675575 1.667136181084258 0  2.267204536760128 2.246625033644231 0  4.821181984497242 6.992731518467086 0  2.439850702774412 0.8250274309749102 0  7.174972522369596 5.560160665184872 0  5.904966268715267 5.477643303883068 0  6.207512920818998 6.198213208971735 0  2.504889937937569 1.447997919101883 0  0.3997445887406886 1.156770199073539 0  0.3288741696483821 1.75 0  1.637615877582278 1.083042277773219 0  2.524803464880197 5.901811913432696 0  5.794604146187496 2.343782137192302 0  6.836411413561036 7.606548808898578 0  1.826315648259891 7.614255845340183 0  1.090927571027496 7.551079899216545 0  6.140889361672077 7.589220379873516 0  1.066148535748459 6.537245249458406 0  0.410779620126483 6.140889361672079 0  0.4489201007834544 6.909072428972504 0  6.470724483843425 6.932131515022222 0  1.638960019540123 6.929295531772199 0  5.660873205465542 6.931985632892141 0  3.623652679878191 6.609113767281198 0  7.62
[...]
<PointData  Scalars="f_24"> 
<DataArray  type="Float64"  Name="f_24"  format="ascii">1.9544800000000001e+02  3.4480000000000008e+00  6.7448000000000008e+01  2.5944799999999998e+02  9.0461913787001492e+01  8.7448000000000008e+01  8.4434023912187399e+01  8.1431507365430505e+01  7.8451186967991248e+01  7.5502989273969604e+01  7.2596020553225188e+01  6.9738570735661852e+01  6.6938130885338055e+01  6.4201423343903457e+01  6.1534443482780091e+01  5.8942511822460652e+01  5.6430335118132625e+01  5.4002074876048262e+01  5.1661421656748480e+01  4.9411673441084041e+01  4.7255816284181883e+01  4.5196605461827517e+01  4.3236645323437990e+01  4.1378466105666959e+01  3.9624596030004412e+01  3.7977627105331578e+01  3.6440273180638847e+01  3.5015418941947537e+01  3.3706158718448457e+01  3.2515824153169888e+01  3.1447999999999997e+01  3.0506527528231864e+01  2.9695495244390713e+01  2.9019216875204350e+01  2.8482196791363492e+01  2.8089083285333260e+01  2.7844610344094733e+01  2.7753528775584659e+01  2.7820527752183096e+01  2.8050148022499620e+01  2.8446688210822742e+01  2.9014105769125976e+01  2.9755914267030480e+01  3.0675078798563113e+01  3.1773911349307365e+01  3.3053968002462348e+01  3.4515949866715630e+01  3.6159609582499854e+01  3.7983665206425457e+01  3.9985723187237795e+01  4.2162212031780285e+01  4.4508328117853424e+01  4.7017994944673184e+01  4.9683836923367224e+01  5.2497168602482709e+01  5.5448000000000000e+01  5.8525058477296795e+01  6.1715827345540454e+01  6.5006601144902746e+01  6.8382557285679496e+01  7.1827843491775241e+01  7.5325680244966904e+01  7.8858477196672439e+01  8.2407962296264529e+01  8.5955322184699355e+01  8.9481352222539783e+01  9.2966614365181584e+01  9.6391600967717238e+01  9.9736902499485993e+01  1.0298337707560175e+02  1.0611231967081773e+02  1.0910562887069305e+02  1.1194596903639399e+02  1.1461692581232253e+02  1.1710315298936688e+02  1.1939050884966802e+02  1.2146618025971208e+02  1.2331879294515849e+02  1.2493850657058061e+02  1.2631709345734595e+02  1.2744800000000001e+02  1.2832639008228398e+02  1.2894917004463832e+02  1.2931499501190169e+02  1.2942425664898741e+02  1.2927905266966633e+02  1.2888313867527657e+02  1.2824186314240487e+02  1.2736208660764889e+02  1.2625208631002100e+02  1.2492144774417687e+02  1.2338094474755981e+02  1.2164240988920405e+02  1.1971859704520242e+02  1.1762303813400683e+02  1.1536989604253810e+02  1.1297381580076379e+02  1.1044977605766816e+02  1.0781294287558507e+02  1.0507852779339092e+02  1.0226165201322016e+02  9.9377218441795677e+01  9.6439793168220817e+01  9.3463497787603728e+01  1.9448000000000000e+01  2.1144800000000001e+02  5.1448000000000000e+01  1.1544800000000001e+02  1.5448000000000000e+01  1.9944800000000001e+02  3.9448000000000000e+01  7.4480000000000004e+00  2.3144800000000001e+02  1.1144800000000001e+02  1.7544800000000001e+02  7.9448000000000008e+01  2.5908310596666800e-01  4.4480000000000004e+00  6.4480000000000004e+00  1.6957294282165927e-02  1.9847268548848562e-01  7.8313117799254900e-02  2.0444800000000001e+02  3.0448000000000000e+01  9.4448000000000008e+01  7.8448000000000008e+01  2.2044800000000001e+02  2.8448000000000000e+01  1.2448000000000000e+01  1.4244800000000001e+02  4.0705364014355844e-01  4.8136500527582993e-01  7.6961852898011873e-01  1.0559652925993683e+00  1.5046082085072726e-01  8.6329168384024235e-01  1.0616321814369749e-01  1.8690245150353307e-01  7.0448000000000008e+01  1.9644800000000001e+02  1.5044800000000001e+02  5.2448000000000000e+01  2.1444800000000001e+02  2.4444800000000001e+02  1.0640974487054340e+00  5.1979676287392418e-01  1.8946409785599587e+00  2.8912073598926091e-01  1.9477874633226757e+00  4.7822144638873243e-01  3.2983500434159247e+00  6.5495646705822450e+00  1.4577898261115463e+00  1.4258498745182728e+00  7.4680603396637835e-01  3.7500129350482292e-01  1.1424639728246758e-01  3.7776449675810164e-01  7.2902346607176172e-01  4.5364047713516031e+00  8.6881102386084024e+00  7.0526994426808791e+00  2.6281597939342625e+00  1.4108837899474045e+00  1.2107947938995776e-01  1.4680291731295179e+00  4.5728709057630272e+00  8.3100809398325186e+00  8.2655916926864237e-01  4.5745582581327782e-01  4.1980000000000004e+00  3.6980000000000008e+00  6.8518457174929515e-01  3.5769248902603712e+00  7.8609848650397263e-01  1.8530592445548761e+00  2.2569800000000001e+02  7.3655433413272409e+00  9.4198000000000008e+01  3.3830804934192509e+00  2.8257121170322610e+00  2.3619800000000001e+02  9.6980000000000004e+00  1.5819800000000001e+02  6.7136531341100336e-01  8.6198000000000008e+01  3.3698000000000000e+01  2.0169800000000001e+02  7.5922259568925128e+00  1.7404777159821414e+00  1.9419800000000001e+02  3.5515876049939465e+00  1.1772652927289873e+00  2.5303635334635874e+00  1.3124802007565277e+00  3.6965933983989530e-01  2.0769800000000001e+02  6.9560824253418776e+00  5.9698000000000000e+01  5.7724146873559503e+00  4.5698000000000000e+01  9.8060607135281086e-01  1.4631784445009383e-01  3.4450680902615023e+00  3.9814819728257916e-01  1.1435162556203262e+00  5.1133367786742261e-02  3.3897764737370015e+00  5.7548227068491808e+00  7.3394996822658409e-01  9.8281031720200431e+00  4.3527944825908405e+00  1.2364932068009834e+01  4.8595354810271250e+00  1.2935414418094446e+00  9.5465355919776715e-02  2.3698000000000000e+01  1.0419800000000001e+02  4.7877736160864268e+00  1.8445163979046169e+00  4.0198000000000000e+01  2.1197383295028462e+00  6.8198000000000008e+01  2.5169799999999998e+02  5.6980000000000004e+00  2.3059845324668458e+01  6.6539932980278593e-01  4.1173716478717448e-01  1.7924398315577752e+00  4.7298117058045026e+00  3.0983721583249859e+00  3.1979704950565746e+00  4.2999059984430765e+00  1.3084872105389107e+00  2.2198000000000000e+01  6.7427702753914849e+00  7.1520863999906270e+00  1.2491308676772015e+00  4.4728248575620233e+00  1.3953539127897775e+01  1.7219800000000001e+02  1.9569800000000001e+02  3.8464459470873119e-01  5.9767427163450515e+00  7.4198000000000008e+01  1.9769800000000001e+02  2.3769800000000001e+02  1.3019800000000001e+02  1.0198000000000000e+01  2.1569800000000001e+02  1.2819800000000001e+02  1.5698000000000002e+01  6.4198000000000008e+01  7.5908360935879013e+00  3.3361463273886595e-02  4.3682256080629833e-01  5.0221007690327901e-01  9.6050990621387289e-01  1.8338615663074975e+01  6.8056859984257412e-01  2.9452299442297258e-01  8.4517400169253643e-01  2.3646915448684108e+01  1.7399941993385447e+01  1.0326198878581040e-01  9.8201129117254418e+00  8.3634330169918467e+00  1.3951762282534554e+00  1.3522169581417942e-01  2.5375429575681821e+01  1.1582752147001720e+00  8.3189737462387348e-01  2.2014792061865265e+00  2.9611340090081715e+01  7.4432438782061761e-01  6.3434399310482927e+00  1.6826671496338435e+01  1.9558260675226624e+01  1.7963762056594332e+00  6.1966133363289284e+00  7.4271884377870090e-01  1.1387529911727872e+00  7.4218480390709480e+00  7.4606170576979203e-01  2.3959381567788354e+00  2.3313445648289310e-01  4.6888840364411644e-01  5.7955515337305981e-02  2.5846388121409576e+00  1.7203389332007040e+00  1.5111857473944740e-01  2.4741986326368819e+00  1.3231751256461164e+01  3.5845891965776727e-01  1.8666866743510918e-01  1.0042984030084592e+00  2.3655354702745126e+00  3.0264090829176953e-02  1.2308867334523592e+01  5.2261141764511860e+00  3.2879509323533590e+01  2.8273916146535864e+01  2.0635025502448542e+01  2.8952527732958771e+01  6.9402442881507109e-01  1.4643843782380976e+01  1.5499287201013175e+01  1.1345856977650244e+00  8.7835198495507716e-01  1.0908046185742630e+00  4.3456601329453859e+00  1.1738927147416367e+01  2.4165806901202316e-01  3.4656391767586264e-01  7.9921203562544205e+00  2.4157223956691445e-01  6.0417916579839153e+00  9.2812997156336774e-01  3.8452469693875528e+01  3.7062884597934548e-01  4.1950584824185555e-01  3.1386720657101810e-02  1.4035485842038792e-01  4.8515500809131415e+00  1.3921301782417443e+01  2.2933137421593436e-01  3.2713890798081091e-01  8.7626032683916200e-01  1.1040362741377932e-01  2.6669147793927275e+00  6.3304491072920932e-01  1.5707635186388675e+00  7.4337142765332578e+00  1.0761035548894402e+00  2.8830858044869845e-01  5.7139904739663105e+00  4.1879392022744497e+00  1.2895256295395297e+01  3.8191281006265889e+01  3.3090003645974924e+01  1.9435605758488801e+01  6.1421648261873232e+00  1.7077474613343899e+01  4.0714189499800630e+00  1.0176409971998361e+00  2.0500576949695954e+01  5.5451052187216618e+01  9.3313494617197223e-01  1.5292540569520535e+01  1.7250329399222067e-01  1.0982926725971371e+01  5.1324432012870929e+01  5.6574900104895328e+01  3.5980699315225209e+01  5.5007147171464702e+01  9.3074693322171531e-01  4.6332088252972614e+00  1.5846885711248126e+01  5.4986947881711501e+00  1.7724126314598776e+00  1.3451913349602565e+01  1.1714493457886450e+00  7.8878815155036861e+00  5.6481315860271153e-01  1.0802302329382003e+00  1.7387045328038331e-01  4.5101660945174622e+00  3.8666291542255834e+01  1.0918985194130832e+00  1.1809116801326038e+00  1.7363727214100432e+01  1.5597764803323424e+01  3.7275139238146084e+00  3.4767272533331028e+00  7.6375631308300846e+00  8.3641681330014244e+00  1.2823956080092265e+00  9.5338362602492239e+00  2.2994504507969755e+00  5.1025386565064146e+00  2.8067867000118095e+01  2.1704058119371250e-01  2.1331908416961545e+00  5.6705322384843427e+01  1.4713350920906416e+00  1.1330536088769632e+00  1.3934731443147776e+01  4.8211819613985041e+00  4.2867318682905262e+00  1.8017621157574988e+00  2.8877016051531124e+00  5.3405917085195123e+00  1.5458746208938161e+00  5.3689387269001090e-02  2.1672066634170531e-01  2.2316812955461227e+01  2.7562178389650320e+00  1.5258871271155824e-01  1.8580242975693949e+01  1.3090452669316954e+00  1.1116472839112315e+00  5.6362102222106421e+00  5.8445526395410017e+00  5.4987434291715074e+00  1.3263350090847639e+00  1.8389003353614961e+00  1.1846605025315367e+00  3.4668085889629047e-01  8.4626859997187054e-01  1.3458052488102362e-01  3.2289636354041212e-01  5.4841279067306703e-01  3.0825893866682225e-01  8.8272429602722347e-01  3.4374449642889232e-01  5.0190226139315186e-01  2.1710466398659484e+01  3.2212694071589920e-01  5.1297338986208962e-01  6.0527964143918611e-01  8.3283851069774495e-01  2.8124355434139797e-01  2.0951050000000001e+02  4.3806063036055271e+01  3.6075226854098943e+01  2.4310820714447715e+01  1.4778399496755927e+00  6.3863037973777315e-01  3.9624718291401841e+01  1.0285642317439581e+01  3.3868411373324152e+00  8.4863068990467763e-02  2.9279179768677612e+00  1.3686655618854788e+01  3.7548962776967363e+00  4.0868153445215425e+00  9.3684803177301129e-02  5.2004040674085927e-01  7.1742033508758851e+00  2.1880424001399462e+01  3.0276183259947742e-01  2.1250485713444025e+01  1.4818698466832524e+01  4.6703597036218198e+00  1.7953891771273160e+00  4.6622494203198919e+00  1.7261467096348466e+00  1.6440585731298809e+00  1.3768232632728967e+01  1.4013550000000001e+02  1.6876907958950742e+00  1.3235248633958877e-01  1.4606622409389859e+01  3.6543977403082373e-01  2.6566455789651167e-01  1.5970001153559139e+00  2.8580151433970222e+00  1.7899344551596306e+00  1.4017595026231561e-01  3.3030292412366304e-02  4.3257465321756641e+01  1.9133181562743896e+01  2.0150221208615370e+01  5.9814488556206546e+00  2.6381651712303804e+00  3.3488431628785783e+01  3.3402016534927519e+01  2.1552649063939633e+00  1.8168197176172521e-01  2.3079912734540282e+00  5.4223056196923283e+00  4.0692592842265557e-01  3.4560730644116450e-01  6.9021513916111248e+00  1.8935694545593407e+01  4.8925382351546559e-01  3.5064985844073138e-01  1.9972327269210564e+00  9.1449734278846423e-02  9.6266879302590240e+00  4.0394271369880203e-01  3.3970350835580043e+00  2.1334711971364462e-01  1.9355379156874333e-01  2.9357086789188114e+00  5.3646833220455044e+01  9.1239263752255830e+00  6.0276819062779219e-01  8.0902660567709894e+00  1.3535031156364860e-01  9.5905468811188632e-01  2.9469254102535216e+00  2.0143541392292530e+01  2.7601897570968754e+00  2.4763550000000001e+02  1.2063550000000001e+02  2.3451050000000001e+02  6.7911919358109851e-01  4.6482424106177644e+00  6.1286926623862992e-01  3.4509000114712407e-01  2.5551050000000001e+02  1.3267584043804311e+01  4.4331654439419301e+00  3.7937590361211726e-01  1.9694412953027143e+00  3.8412707654905343e-01  2.0147213987741299e+00  1.0199811840751579e+01  7.1824880390197976e+01  6.2951154290693061e+01  2.6521026015953386e-01  1.8694159048025593e+01  5.9261661045685683e+00  7.1037150960798208e+00  1.1764972976050294e+00  1.3347778009431357e+00  1.1401791866895927e+01  3.4619409993830335e+00  1.2860953510463932e-01  1.7859424296264415e+00  1.8108524077357639e+00  1.0175955136617827e+00  5.2933933557578128e-01  9.7521207844758440e-01  2.1024403915052189e-01  2.4995253421261043e-01  4.8959647051877025e-02  2.9761780786841118e+01  1.0236119269566681e+00  2.0618169632417324e-01  1.0791891300091088e+01  4.9010500000000000e+01  1.1558671472511753e+01  2.9389490726482457e+00  9.6456965386096294e-01  5.5031344686656070e-01  2.9089089920573649e+01  5.4103169975287022e+00  2.9980668868467633e+00  7.4647222035941931e+00  2.7030483146242073e+01  1.1010500000000000e+01  2.1458303127647685e+01  1.9251910328762094e+00  7.9936208867586878e-01  1.6141394156939413e+00  7.2135500000000008e+01  8.4653762296113721e-01  3.0998442359208633e+00  8.4740526976842090e-02  6.7077097664420569e+00  2.0301050000000001e+02  2.6783879700121386e+01  3.6455386199299129e+00  3.8830142981352731e+00  1.9387227721607112e+00  7.6407415457373862e-01  2.2226006241498652e+01  8.1355000000000004e+00  1.1855168712004629e+00  1.0060320396428873e+01  4.5635500000000000e+01  1.2781695890682890e+01  1.2163550000000001e+02  1.3102810435341701e+00  1.4414554086691911e+01  1.9701050000000001e+02  3.8401971820437034e+01  1.6663550000000001e+02  1.0382548270482848e+01  4.8850232489272782e-01  1.8819472002022601e+00  6.5105000000000004e+00  2.5934198171231249e-01  7.4822406840800308e+00  1.8174840202645647e+01  1.6516757551226973e+00  2.2662871561023747e+00  2.4101050000000001e+02  3.4085141014747052e+01  4.1531676854242187e-02  1.9414634957104996e-02  5.8637009794717587e-01  5.8115276335637911e-01  7.3952541552176954e-01  3.5972532630988902e-02  2.2513550000000001e+02  4.9616327774563063e+00  2.6322821041720353e-02  6.3510500000000000e+01  6.7635500000000008e+01  4.9832544523608568e+00  2.9714058762689627e-01  2.8030712369585526e+01  6.7057786522589397e-02  1.3729100659083954e-01  1.5013550000000001e+02  8.5105000000000004e+00  1.1040109180215921e+01  2.3294739412862202e+00  5.7635500000000000e+01  4.4506349144773366e-01  8.8710905567641019e-01  4.2872460814682798e+00  5.8820628945898150e+01  1.0485545512257358e+01  7.4526464897841771e-01  1.9851050000000001e+02  2.9808284619099950e+00  7.0375359024657875e+00  5.4176579360820065e-01  1.1599095756323807e+00  1.8708922750397432e+00  6.3426962794277628e+00  2.0413550000000001e+02  5.3373604826323003e+01  1.4532440859408990e+01  5.3790250233013992e+01  1.8537415048032386e+01  6.1459682790985717e+00  4.1154971601147361e+00  1.3513550000000001e+02  1.0263550000000001e+02  2.0601050000000001e+02  1.0963550000000001e+02  3.6510500000000000e+01  3.5105000000000008e+00  3.6355000000000008e+00  5.1355000000000004e+00  2.0051050000000001e+02  2.6010500000000000e+01  2.1351050000000001e+02  1.8363550000000001e+02  4.0105000000000004e+00  1.9551050000000001e+02  2.2851050000000001e+02  9.0135500000000008e+01  9.9135500000000008e+01  1.7510500000000000e+01  1.6113550000000001e+02  1.9601050000000001e+02  8.2635500000000008e+01  1.8635500000000000e+01  2.6135500000000000e+01  3.5135500000000000e+01  7.1135500000000008e+01  2.1801050000000001e+02  5.0105000000000004e+00  3.1010499999999997e+01  7.6635500000000008e+01  1.2635500000000000e+01  1.4010500000000000e+01  4.2510500000000000e+01  5.6010500000000000e+01  6.9135500000000008e+01  1.8463550000000001e+02  2.1510500000000000e+01  8.6135500000000008e+01  2.2301050000000001e+02  2.4801050000000001e+02  1.2864094610224186e+00  1.8094665422969378e-01  4.5230814449023766e+00  3.7900810533444262e-01  3.5670161237641089e+00  2.8619850615009339e+00  5.4879999791214029e-01  8.0885817080410888e+01  8.5188996811893847e-01  2.7722527257342162e+00  1.4897694901466070e+00  1.8127683435253510e+00  5.6249793864079245e-01  1.9748486964768053e+00  2.7298874760195833e+01  5.9185988809163403e-01  9.7154206005153618e+00  5.0050999858819667e+00  2.1799932183055397e+01  8.3548114365739377e+00  1.2495356538951139e+00  2.5870163235662874e-01  1.1053883324278826e+00  3.0700255086263959e+00  5.3330698664602842e+01  3.1784911774879487e-01  2.9354552403253581e-01  3.8731126686175212e+00  8.0488505942240618e-01  1.2371803889794615e+00  4.4728667456559995e-01  2.2011153212202128e+00  4.8914035335570233e+01  1.4413717556301406e+00  9.8592832495265448e+00  5.6469940232991578e-01  1.0111736706687324e+00  6.9401630498682295e+01  3.5703931122600125e+01  1.7217190839697443e+00  2.6569632244396330e-01  8.6682405701713164e-02  9.1898389533490710e-01  6.2964875730379788e-02  2.2508337956764617e+01  2.2558685850125247e+01  6.8247679545705466e+01  9.9349447507994206e+00  7.0387936265718132e+00  1.7533792597365336e+00  7.8409005447982985e+00  1.5534005312897956e+00  1.3730712071173237e+01  5.7975519527711716e+00  1.4557390069132410e+00  8.6051136622153701e-01  5.8249965084398836e-01  1.3373002174468470e+01  6.1958495651661728e+01  3.6028172746187104e+00  1.8699652766374697e+00  1.6508426136695979e+00  1.9868173491569689e+01  6.7733886501569507e-01  8.6280495470719323e-02  1.7957979090584453e+00  8.9633746940560215e+00  8.2485476611674535e+00  4.7317017595718952e-01  1.7974523873983324e+00  6.4883811003304963e+00  4.5190490748598847e+01  1.2853876527546570e+01  6.8847856640302645e+00  1.6700738990387933e+01  2.3968039544836429e+01  1.5810352240162919e+00  2.8278475500625350e-01  5.4567171774609169e-01  3.7250318340416982e-01  2.6153310773986338e+01  1.6607986894533366e-01  2.4759474347164909e-01  2.1980436669240081e+01  6.5408563608096671e+01  5.0173319366463849e+00  1.3337798274452972e+00  1.2657003922697092e+00  8.8759407139772806e-01  2.5120288243446551e+00  1.9508410822966271e+00  2.0684857870541420e-01  5.3487865992097283e-01  7.2115392154399893e-01  2.1620756800350356e+00  2.5163873520568281e-01  5.1184545738291877e-02  2.6960044987575533e+00  1.0234358287079949e-01  2.2195426952608160e-01  1.5390648762105825e+00  9.4235060181929742e-01  2.1891388844818866e+00  1.3325469028635162e+01  9.1974840661104693e+00  1.9612045199370940e+00  1.0876422339167907e+02  1.7204135847455955e+01  2.2397653653263561e+01  4.4879180241591649e-01  3.4521347237468710e+01  2.7534591374282367e+00  3.6139749357619930e+00  1.1773441563067839e+00  3.8483201526397690e+00  1.2110107465320610e+00  9.4822888368606133e+00  2.3298149388940487e+01  2.5139740824333362e-01  1.2026029815205843e+00  1.6923798149733054e+00  1.3066434335136812e-01  1.2456967488001962e+00  7.7596953448815782e+01  5.0546845925824941e+00  5.9342285221218449e-01  8.3463665729997700e+01  9.3837278654355345e+01  2.1826740120272692e-02  3.4397257578428779e+00  3.6734058934286087e+00  2.3988132472918704e+01  1.0777325381023548e+01  1.0432803361673988e+00  2.3732335287360773e-01  4.4922278257028486e-01  3.5047656371476386e+01  4.4091355218023409e+00  5.4354385787767797e+01  6.0464968423485332e-01  3.5973350446231855e-01  5.2958279482365667e-01  1.7889109175533829e+01  2.1556647340400112e+01  7.0945474054096934e+01  6.2347521856134112e+00  4.5957299330735935e+01  9.1143182444267143e+00  9.0855113162729690e+00  3.4416311181510260e+00  3.7700586744918376e+00  5.2175762604083378e+00  1.1495625461390755e+00  1.7510906211666863e-01  3.0744052120595757e+00  5.6886893382184923e+01  1.2185669298496594e+01  1.2303663309536257e+00  1.7797910247705799e+00  8.1997974642274816e+00  1.4346546722026924e+01  3.8120193862709645e-01  2.8996835555206095e+00  1.2068887448658360e+01  8.1611159318054904e-02  3.4942203204812977e-01  3.8272783364843682e-01  2.3369481664937325e-02  5.0628119018428652e