<?xml version="1.0"?>
<VTKFile type="UnstructuredGrid"  version="0.1"  >
<UnstructuredGrid>
<Piece  NumberOfPoints="3311" NumberOfCells="6266">
<Points>
<DataArray  type="Float64"  NumberOfComponents="3"  format="ascii">0 8 0  0 0 0  8 0 0  8 8 0  5.996053456856544 4.125581039058627 0  6 4 0  5.996053456856544 3.874418960941374 0  5.984229402628955 3.749333532871391 0  5.964574501457378 3.625237370828551 0  5.937166322257262 3.502620225670289 0  5.902113032590307 3.381966011250105 0  5.859552971776503 3.263750894630644 0  5.809654104932038 3.148441416869854 0  5.752613360087726 3.036492651796568 0  5.68865585100403 2.928346410042006 0  5.618033988749895 2.824429495415053 0  5.541026485551579 2.725152020502621 0  5.457937254842823 2.630905788142622 0  5.369094211857376 2.542062745157176 0  5.274847979497379 2.458973514448421 0  5.175570504584946 2.381966011250105 0  5.071653589957993 2.31134414899597 0  4.963507348203431 2.247386639912273 0  4.851558583130144 2.19034589506796 0  4.736249105369355 2.140447028223497 0  4.618033988749895 2.097886967409693 0  4.49737977432971 2.062833677742738 0  4.374762629171449 2.035425498542622 0  4.250666467128609 2.015770597371044 0  4.125581039058626 2.003946543143457 0  4 2 0  3.874418960941374 2.003946543143457 0  3.749333532871391 2.015770597371044 0  3.625237370828551 2.035425498542622 0  3.502620225670291 2.062833677742738 0  3.381966011250105 2.097886967409693 0  3.263750894630644 2.140447028223497 0  3.148441416869856 2.19034589506796 0  3.03649265179657 2.247386639912273 0  2.928346410042007 2.311344148995969 0  2.824429495415053 2.381966011250105 0  2.725152020502621 2.458973514448421 0  2.630905788142623 2.542062745157177 0  2.542062745157176 2.630905788142623 0  2.458973514448421 2.725152020502621 0  2.381966011250104 2.824429495415055 0  2.311344148995969 2.928346410042007 0  2.247386639912273 3.036492651796569 0  2.190345895067961 3.148441416869856 0  2.140447028223497 3.263750894630644 0  2.097886967409693 3.381966011250106 0  2.062833677742738 3.502620225670291 0  2.035425498542623 3.62523737082855 0  2.015770597371044 3.749333532871391 0  2.003946543143457 3.874418960941374 0  2 4 0  2.003946543143457 4.125581039058627 0  2.015770597371044 4.250666467128609 0  2.035425498542622 4.374762629171449 0  2.062833677742738 4.49737977432971 0  2.097886967409693 4.618033988749895 0  2.140447028223497 4.736249105369357 0  2.190345895067961 4.851558583130146 0  2.247386639912273 4.96350734820343 0  2.31134414899597 5.071653589957994 0  2.381966011250105 5.175570504584947 0  2.458973514448422 5.274847979497379 0  2.542062745157177 5.369094211857377 0  2.630905788142623 5.457937254842823 0  2.725152020502621 5.541026485551578 0  2.824429495415054 5.618033988749895 0  2.928346410042006 5.68865585100403 0  3.036492651796569 5.752613360087727 0  3.148441416869855 5.809654104932039 0  3.263750894630645 5.859552971776503 0  3.381966011250106 5.902113032590307 0  3.50262022567029 5.937166322257262 0  3.625237370828551 5.964574501457378 0  3.749333532871391 5.984229402628956 0  3.874418960941373 5.996053456856544 0  4 6 0  4.125581039058627 5.996053456856544 0  4.250666467128609 5.984229402628955 0  4.37476262917145 5.964574501457378 0  4.497379774329709 5.937166322257262 0  4.618033988749895 5.902113032590307 0  4.736249105369356 5.859552971776503 0  4.851558583130146 5.809654104932039 0  4.96350734820343 5.752613360087727 0  5.071653589957993 5.688655851004031 0  5.175570504584947 5.618033988749895 0  5.274847979497379 5.541026485551578 0  5.369094211857377 5.457937254842824 0  5.457937254842824 5.369094211857377 0  5.541026485551578 5.274847979497379 0  5.618033988749895 5.175570504584947 0  5.688655851004031 5.071653589957993 0  5.752613360087727 4.96350734820343 0  5.809654104932039 4.851558583130146 0  5.859552971776503 4.736249105369356 0  5.902113032590307 4.618033988749895 0  5.937166322257262 4.497379774329709 0  5.964574501457378 4.37476262917145 0  5.984229402628956 4.250666467128609 0  4 0 0  4 8 0  0 4 0  8 4 0  0 2 0  2 8 0  6 0 0  2 0 0  6 8 0  0 6 0  8 6 0  8 2 0  6.521298246749463 6.521298246749463 0  1 0 0  0 1 0  1.483805613147755 1.483805613147755 0  1.478701753250537 6.521298246749463 0  6.521298246749463 1.478701753250537 0  3 8 0  0 3 0  8 3 0  0 5 0  5 8 0  5 0 0  3 0 0  8 5 0  6.873734575860524 2.615431780543919 0  1.116982513655503 5.247593072616309 0  6.883017486344498 5.247593072616301 0  5.247593072616301 6.883017486344497 0  1.126098722170601 2.617891572298291 0  2.615431780543918 6.873734575860524 0  2.752406927383699 1.116982513655503 0  5.384568219456082 1.126265424139476 0  8 1 0  1 8 0  0 7 0  7 0 0  8 7 0  7 8 0  7.020499434641315 3.646406833984896 0  0.9797566053390774 3.648465816465237 0  3.715288427949091 7.011933824133993 0  4.353593166015106 0.9795005653586846 0  0.6967635209176272 4.5 0  3.5 0.6967635209176218 0  7.275042869145442 4.47475797999556 0  4.511587833362441 7.305805066533029 0  6.221909358080951 5.748059996166043 0  2.210760254282484 6.169547847869656 0  5.847454471986239 1.9044742386454 0  2.256260253799227 1.778178383200799 0  1.980629682828464 0.8249524138953971 0  0.6577483392967642 1.5 0  6.111193299431891 0.7920397023581334 0  0.6549706477735622 6.5 0  6.5 7.345029352226438 0  1.5 7.345029352226438 0  7.175403142852891 6.018842476908514 0  7.207960297641867 1.88880670056811 0  1.20233119856484 0.7548054172032042 0  7.138369340064689 0.8616306599353107 0  7.199038705435568 6.950962679584875 0  0.7268524757237351 7.273147524276265 0  5.787512723837678 6.360832417372146 0  1.584163534320421 5.803133310871846 0  0 0.5 0  0.5 0 0  1.813082410952285 2.362102895128433 0  4.585782825748341 6.620641716166908 0  3.414352878528616 1.379965389869018 0  1.37996538986902 4.585647121471382 0  5.5 8 0  5.795705687727962 7.325709583536691 0  0 5.5 0  0.6742904164633071 5.795705687727965 0  6.608410641840795 4.622450854667636 0  8 7.5 0  2.5 0 0  8 5.5 0  0.6430017150697597 2.16323374265656 0  8 2.5 0  5.5 0 0  2.5 8 0  2.162575541096604 7.357557400929156 0  6.209066202375347 2.498720159134196 0  8 6.5 0  3.213766170612044 6.557595245863999 0  4.810864017456047 1.461836067072289 0  6.474921798096663 3.108973325505615 0  1.461596867478842 3.191209948990856 0  0.6057536094346159 0.6057536094346163 0  3.5 8 0  3.116533476945463 7.331420182036469 0  7.5 0 0  7.50138895891471 1.352981564798016 0  6.5 0 0  4.925848415861192 0.6541083366372827 0  6.636309068723879 2.066043736464307 0  7.345891663362717 3.074151584138809 0  2.034062939515405 6.739458287989336 0  0.6538386597513111 3.07650783347036 0  1.306229817586613 2.051251581737755 0  1.711425920865481 5.22190430062486 0  5.172422863235413 6.301009428280244 0  2.75 0.5305166887675732 0  7.469483311232427 5.25 0  0.5722092524055858 5.06190966273399 0  5.072435773461397 7.430123991012138 0  6.319527671469182 5.122233284663893 0  2.835488340834966 1.696071607164519 0  5.920435248419656 1.334295501631503 0  4.5 0 0  8 3.5 0  7.432272671858859 2.512886319125838 0  5.571830688303236 0.5764100372080221 0  0 3.5 0  5.289311353655532 1.776472779228421 0  8 0.5 0  7.5 8 0  1.5 0 0  7.25 7.504032729381043 0  6.06696156120921 6.840932928848806 0  1.126750463624113 6.102788617506953 0  4.079942410528958 1.456191250380107 0  6.543808749619893 3.920057589471043 0  1.456853858348016 3.920078412765323 0  2.719154100210118 6.345760317541158 0  6.75 0.4820732229428856 0  1.147555431445879 6.942001202471608 0  0 2.5 0  4.033254072103534 6.555375438181171 0  7.459092130175394 3.96491680499676 0  4.023910705003057 0.5449410641392927 0  0.46324372358657 3.75 0  4.000538644612607 7.464791837989975 0  0 7.5 0  0.5 8 0  6.641367242777847 0.9816996559636945 0  2.060098699240311 5.602794388158723 0  8 1.5 0  1.5 8 0  6.5 8 0  0 6.5 0  0 1.5 0  4.5 8 0  8 4.5 0  3.5 0 0  0 4.5 0  5.71241378857682 5.847235604203799 0  1.980356857777504 1.341494340873432 0  6.73841195435907 5.743461321139284 0  7.001901661066728 1.342234074252575 0  2.271256172523833 0.4319561292819105 0  7.568195995774798 5.728421007950713 0  1.079620717833623 4.213724869256849 0  3.785914285080838 1.07957548172746 0  1.75 0.4068334879001349 0  7.593198924126513 6.25 0  2.644210543189512 7.51442503308679 0  1.759107121904632 1.881466257766474 0  7.598221819062164 0.75 0  7.25 0.4017781809378356 0  7.016697196788522 6.489226510093869 0  0.8135924992537802 1.042303878660207 0  7.590765621254587 6.709933711568556 0  6.972320805074426 4.114496419277549 0  0.6689706016379435 2.619626936075973 0  4.490317171939625 0.4719794785870491 0  7.586130070956817 7.194177964358491 0  1.564887898956812 2.745941764426699 0  7.45216884474369 3.51322113522411 0  7.58575169794429 4.808833363985082 0  3.538045596929494 7.533919544016318 0  4.268777385438645 6.932912710296469 0  6.25 0.3687278481717181 0  6.915054373976157 3.207810438216838 0  7.002360785621788 4.82228450274451 0  0.3972487693887257 4.181902501602563 0  0.9482937176147312 4.850514130935556 0  3.25 0.3483817604588109 0  3.078724571458289 0.822405414577691 0  1.086245288390012 5.675597706514477 0  1.074212327675575 1.667136181084258 0  2.267204536760128 2.246625033644231 0  4.821181984497242 6.992731518467086 0  2.439850702774412 0.8250274309749102 0  7.174972522369596 5.560160665184872 0  5.904966268715267 5.477643303883068 0  6.207512920818998 6.198213208971735 0  2.504889937937569 1.447997919101883 0  0.3997445887406886 1.156770199073539 0  0.3288741696483821 1.75 0  1.637615877582278 1.083042277773219 0  2.524803464880197 5.901811913432696 0  5.794604146187496 2.343782137192302 0  6.836411413561036 7.606548808898578 0  1.826315648259891 7.614255845340183 0  1.090927571027496 7.551079899216545 0  6.140889361672077 7.589220379873516 0  1.066148535748459 6.537245249458406 0  0.410779620126483 6.140889361672079 0  0.4489201007834544 6.909072428972504 0  6.470724483843425 6.932131515022222 0  1.638960019540123 6.929295531772199 0  5.660873205465542 6.931985632892141 0  3.623652679878191 6.609113767281198 0  7.62
[...]
<PointData  Scalars="f_24"> 
<DataArray  type="Float64"  Name="f_24"  format="ascii">1.9573599999999999e+02  3.7360000000000011e+00  6.7736000000000004e+01  2.5973599999999999e+02  9.0749913787001489e+01  8.7736000000000004e+01  8.4722023912187396e+01  8.1719507365430502e+01  7.8739186967991245e+01  7.5790989273969601e+01  7.2884020553225184e+01  7.0026570735661849e+01  6.7226130885338051e+01  6.4489423343903454e+01  6.1822443482780095e+01  5.9230511822460656e+01  5.6718335118132629e+01  5.4290074876048266e+01  5.1949421656748484e+01  4.9699673441084045e+01  4.7543816284181887e+01  4.5484605461827520e+01  4.3524645323437994e+01  4.1666466105666963e+01  3.9912596030004416e+01  3.8265627105331582e+01  3.6728273180638851e+01  3.5303418941947541e+01  3.3994158718448453e+01  3.2803824153169892e+01  3.1735999999999997e+01  3.0794527528231860e+01  2.9983495244390713e+01  2.9307216875204350e+01  2.8770196791363492e+01  2.8377083285333260e+01  2.8132610344094733e+01  2.8041528775584659e+01  2.8108527752183097e+01  2.8338148022499620e+01  2.8734688210822743e+01  2.9302105769125976e+01  3.0043914267030480e+01  3.0963078798563114e+01  3.2061911349307373e+01  3.3341968002462352e+01  3.4803949866715634e+01  3.6447609582499858e+01  3.8271665206425460e+01  4.0273723187237799e+01  4.2450212031780289e+01  4.4796328117853427e+01  4.7305994944673188e+01  4.9971836923367228e+01  5.2785168602482713e+01  5.5736000000000004e+01  5.8813058477296799e+01  6.2003827345540451e+01  6.5294601144902742e+01  6.8670557285679493e+01  7.2115843491775237e+01  7.5613680244966901e+01  7.9146477196672436e+01  8.2695962296264526e+01  8.6243322184699352e+01  8.9769352222539780e+01  9.3254614365181581e+01  9.6679600967717235e+01  1.0002490249948599e+02  1.0327137707560175e+02  1.0640031967081772e+02  1.0939362887069305e+02  1.1223396903639399e+02  1.1490492581232253e+02  1.1739115298936687e+02  1.1967850884966802e+02  1.2175418025971207e+02  1.2360679294515849e+02  1.2522650657058061e+02  1.2660509345734594e+02  1.2773600000000000e+02  1.2861439008228396e+02  1.2923717004463830e+02  1.2960299501190167e+02  1.2971225664898742e+02  1.2956705266966631e+02  1.2917113867527655e+02  1.2852986314240485e+02  1.2765008660764887e+02  1.2654008631002098e+02  1.2520944774417688e+02  1.2366894474755982e+02  1.2193040988920404e+02  1.2000659704520241e+02  1.1791103813400683e+02  1.1565789604253810e+02  1.1326181580076378e+02  1.1073777605766816e+02  1.0810094287558506e+02  1.0536652779339092e+02  1.0254965201322015e+02  9.9665218441795673e+01  9.6727793168220813e+01  9.3751497787603725e+01  1.9736000000000001e+01  2.1173599999999999e+02  5.1736000000000004e+01  1.1573600000000000e+02  1.5736000000000001e+01  1.9973599999999999e+02  3.9736000000000004e+01  7.7360000000000007e+00  2.3173599999999999e+02  1.1173600000000000e+02  1.7573599999999999e+02  7.9736000000000004e+01  2.5946085603464453e-01  4.7360000000000007e+00  6.7360000000000007e+00  1.7326461485098522e-02  1.9885014765434078e-01  7.8694502802021768e-02  2.0473599999999999e+02  3.0735999999999997e+01  9.4736000000000004e+01  7.8736000000000004e+01  2.2073599999999999e+02  2.8736000000000001e+01  1.2736000000000001e+01  1.4273599999999999e+02  4.0850871259476867e-01  4.8303957345859494e-01  7.7129737832675338e-01  1.0576266406400952e+00  1.5192042327192748e-01  8.6475656373667942e-01  1.0782464266744508e-01  1.8839416088098684e-01  7.0736000000000004e+01  1.9673599999999999e+02  1.5073599999999999e+02  5.2736000000000004e+01  2.1473599999999999e+02  2.4473599999999999e+02  1.0672129657947766e+00  5.2301957202178240e-01  1.8977419447395498e+00  2.9222270025743324e-01  1.9564733205996820e+00  4.8672669236334032e-01  3.3058433713913145e+00  6.5583964026338357e+00  1.4613856777089698e+00  1.4298216167208311e+00  7.5103910537734331e-01  3.7870525506170555e-01  1.1854042246291639e-01  3.8809626408922837e-01  7.3414181933435463e-01  4.5463602692618315e+00  8.6986397569658909e+00  7.0629900990511238e+00  2.6324495591685344e+00  1.4160589183177466e+00  1.2782604464547359e-01  1.4748344940184404e+00  4.5788762504693796e+00  8.3234818834474638e+00  8.2842468724391916e-01  4.5889966810520211e-01  4.4860000000000007e+00  3.9860000000000011e+00  6.9113913423672768e-01  3.5847532872312149e+00  7.9398959113632972e-01  1.8610243978212770e+00  2.2598599999999999e+02  7.3748075400910391e+00  9.4486000000000004e+01  3.3924036995634763e+00  2.8338970691425773e+00  2.3648599999999999e+02  9.9860000000000007e+00  1.5848599999999999e+02  6.8220020264802483e-01  8.6486000000000004e+01  3.3986000000000004e+01  2.0198599999999999e+02  7.6031549828438916e+00  1.7487508445573832e+00  1.9448599999999999e+02  3.5600213508202367e+00  1.1861897092660951e+00  2.5405291627213473e+00  1.3213470485263834e+00  3.9341700658489859e-01  2.0798599999999999e+02  6.9659009751841996e+00  5.9986000000000004e+01  5.7951770975188959e+00  4.5986000000000004e+01  9.9069642404226077e-01  1.4693335722105602e-01  3.4554099303694401e+00  3.9882059209895615e-01  1.1537584010664950e+00  5.1754247761810195e-02  3.4017527311127429e+00  5.7678043058582347e+00  7.5293238033701670e-01  9.8469212711850389e+00  4.3683514155664627e+00  1.2381052186027535e+01  4.8724732990121353e+00  1.3067933440575208e+00  9.6097079934966551e-02  2.3986000000000001e+01  1.0448600000000000e+02  4.8036640918280042e+00  1.8598766128676967e+00  4.0486000000000004e+01  2.1335918107053242e+00  6.8486000000000004e+01  2.5198599999999999e+02  5.9860000000000007e+00  2.3086974608962059e+01  6.6626981823427389e-01  4.1276660604066490e-01  1.8085056744378354e+00  4.7455896404554299e+00  3.1147825696844524e+00  3.2061827668043601e+00  4.3249605790747392e+00  1.3106125698583799e+00  2.2486000000000001e+01  6.7579371665631687e+00  7.1700273849594263e+00  1.2672801617621454e+00  4.5008703689154999e+00  1.3972583804759584e+01  1.7248599999999999e+02  1.9598599999999999e+02  3.8684244521599043e-01  5.9952834413750491e+00  7.4486000000000004e+01  1.9798599999999999e+02  2.3798599999999999e+02  1.3048599999999999e+02  1.0486000000000001e+01  2.1598599999999999e+02  1.2848599999999999e+02  1.5986000000000002e+01  6.4486000000000004e+01  7.6088510802161551e+00  3.3921309733056772e-02  4.3770424831858384e-01  5.0426689259349666e-01  9.9230637892807072e-01  1.8370434049901903e+01  6.8391081156041544e-01  2.9776668826115454e-01  8.8220704844131426e-01  2.3683735727733232e+01  1.7424693875704957e+01  1.0424546036345962e-01  9.8615616947268219e+00  8.4054863789573986e+00  1.3972178048697355e+00  1.4112022179134504e-01  2.5411391812570926e+01  1.1614942960638381e+00  8.4162232367545209e-01  2.2282219129280514e+00  2.9649239727103506e+01  7.5007794622246837e-01  6.3608943857557048e+00  1.6861990604717452e+01  1.9585365787909133e+01  1.7995732627705219e+00  6.2384541423753825e+00  7.4520165305105412e-01  1.1413568709583852e+00  7.4598125624435712e+00  7.4898624533174774e-01  2.4449271508535104e+00  2.3791155210723375e-01  4.7026813591099997e-01  5.9283660745912146e-02  2.6090494142448262e+00  1.7229611523995743e+00  1.5549887110008398e-01  2.4786599984765565e+00  1.3264547841929227e+01  3.5927640805480654e-01  1.8867190622289093e-01  1.0421657658242434e+00  2.4187752917965173e+00  3.1509803836421296e-02  1.2342846024142037e+01  5.2537709970812223e+00  3.2918622820210160e+01  2.8314868320491914e+01  2.0665352653762007e+01  2.8988286385694948e+01  6.9546546187389868e-01  1.4679924367347086e+01  1.5529470987396353e+01  1.1359832672569945e+00  8.7965715243670839e-01  1.0922776106638812e+00  4.3556030650175748e+00  1.1782777964590004e+01  2.4378110057647079e-01  3.4907830295214165e-01  8.0216130940748656e+00  2.4218882548068449e-01  6.0978403419180056e+00  9.8067539477168020e-01  3.8503303657313900e+01  3.7124409343956438e-01  4.2165257532923484e-01  3.2724617196294319e-02  1.4125613165900736e-01  4.8573865590448575e+00  1.3977487204623493e+01  2.3021619058485315e-01  3.2969844404782905e-01  8.7930683330705606e-01  1.1101782669251618e-01  2.6936827103298424e+00  6.3456700380814701e-01  1.5734440946628594e+00  7.4944422077941972e+00  1.0821094524177752e+00  2.9018002758286804e-01  5.7763984021176498e+00  4.2223933495436707e+00  1.2940640620594440e+01  3.8247989231796261e+01  3.3147572147471969e+01  1.9480900447004569e+01  6.1785151707823029e+00  1.7153674231870646e+01  4.1380356335493902e+00  1.0198128370346113e+00  2.0560371884315224e+01  5.5516591379227442e+01  9.3549743304873545e-01  1.5340541878153992e+01  1.7398723163195648e-01  1.1016982216785001e+01  5.1389108849079449e+01  5.6662415126082728e+01  3.6026868568433379e+01  5.5081343616044649e+01  9.3851750635036579e-01  4.6391795230511494e+00  1.5886376141646467e+01  5.5320670260900879e+00  1.7780800965770320e+00  1.3492656769616019e+01  1.1729622252076490e+00  7.9226120439206911e+00  5.6674005166181973e-01  1.0834663074549942e+00  1.7434925755676045e-01  4.5792606470213268e+00  3.8721719089600363e+01  1.1689209570266523e+00  1.2426909536553430e+00  1.7402572136673587e+01  1.5632626826561127e+01  3.7632335386776248e+00  3.5120989854013924e+00  7.6733502078642095e+00  8.3969875112248182e+00  1.2873184931934212e+00  9.6089332164244166e+00  2.3050973071148069e+00  5.1431871861889960e+00  2.8141740153457231e+01  2.1959434630161095e-01  2.1377919546072115e+00  5.6784569535610942e+01  1.4806471242984709e+00  1.2174648580587446e+00  1.3973917983308512e+01  4.8322946373242894e+00  4.2920272214656752e+00  1.8149920867374447e+00  2.8932340499612521e+00  5.3982181525016184e+00  1.5482813060256087e+00  5.4793869600641219e-02  2.1952790715529061e-01  2.2378332325213830e+01  2.7647643928039884e+00  1.5984654066142284e-01  1.8624203575608579e+01  1.3125634608921817e+00  1.1145952556507122e+00  5.6773102246329765e+00  5.8861831837048060e+00  5.5729815355172825e+00  1.3294101860349374e+00  1.8415760107462562e+00  1.1864270506320476e+00  3.4820850876577070e-01  8.4985159874657024e-01  1.3646355413667915e-01  3.2362605074810785e-01  5.5228610835323311e-01  3.1057457823023943e-01  8.8813223118770879e-01  3.6552117299345510e-01  5.1231239425037423e-01  2.1760296879580711e+01  3.2526246667933839e-01  5.1875567728343253e-01  6.1080204475424404e-01  8.3549912825450956e-01  2.8177082838503725e-01  2.0979849999999999e+02  4.3859218472616263e+01  3.6127845087681898e+01  2.4365067191178934e+01  1.4831079075245741e+00  6.4144118795870997e-01  3.9680638529313519e+01  1.0335244384718070e+01  3.3917122591706970e+00  8.7581300541457421e-02  2.9494881480613673e+00  1.3742151814528260e+01  3.7644643458739977e+00  4.0951468247889160e+00  9.4132807825513615e-02  5.2485280594272987e-01  7.1848570506887564e+00  2.1930363545616157e+01  3.0548071135744498e-01  2.1323314020541908e+01  1.4868091900322543e+01  4.6769720236168437e+00  1.8005735168486685e+00  4.6691764140466541e+00  1.7332288023310485e+00  1.6503813142035566e+00  1.3824186065222026e+01  1.4042349999999999e+02  1.6917349202046117e+00  1.3477729327891652e-01  1.4644781182460880e+01  3.6677620282451739e-01  2.6611840461482839e-01  1.6432401468076179e+00  2.8621711518355841e+00  1.7958321800421697e+00  1.4143577409183272e-01  3.3444744854574271e-02  4.3316819828525553e+01  1.9189373493307087e+01  2.0202323325068633e+01  6.0429971022842262e+00  2.7002936931248627e+00  3.3549968956828856e+01  3.3468429850542080e+01  2.2173174167079281e+00  1.8613678713299608e-01  2.3124470905436771e+00  5.4300259438310299e+00  4.1310719256460915e-01  3.5014062048148720e-01  6.9615978676700072e+00  1.8996953599945858e+01  4.9013628211224186e-01  3.5435130344913951e-01  2.0012528093810564e+00  9.2383303453983906e-02  9.6886006531623252e+00  4.0783351275680269e-01  3.4105660191628795e+00  2.1461257649459542e-01  1.9493400743427897e-01  2.9396115020494795e+00  5.3716609191953701e+01  9.1360048526521798e+00  6.0604081276754984e-01  8.1268296202529857e+00  1.3633947020027029e-01  9.6491146421398899e-01  2.9730618106367177e+00  2.0210060702633729e+01  2.7689271171129506e+00  2.4792350000000002e+02  1.2092350000000000e+02  2.3479849999999999e+02  6.8599339615461352e-01  4.6616670035611092e+00  6.1517492928638096e-01  3.6211904599600553e-01  2.5579849999999999e+02  1.3315685741530906e+01  4.4429519573849081e+00  3.8031138372712925e-01  1.9724753603745622e+00  3.8464179739571019e-01  2.0172654047683380e+00  1.0212424214712868e+01  7.1907963065666067e+01  6.3025025385035015e+01  2.6619867894425703e-01  1.8759060047122521e+01  5.9344318340604705e+00  7.1139963662378314e+00  1.1803878853713885e+00  1.3390457528263222e+00  1.1464693257405257e+01  3.4739679031323814e+00  1.3604374017830334e-01  1.7886002435385933e+00  1.8193582043432113e+00  1.0272337675995564e+00  5.3018985644670202e-01  9.7780762592706405e-01  2.1084306789643206e-01  2.5050874841579124e-01  5.1382798810841367e-02  2.9828934393184593e+01  1.0272203429732554e+00  2.0657091441052214e-01  1.0859171535976568e+01  4.9298500000000004e+01  1.1622166061506672e+01  2.9544704448006365e+00  9.6975034277847338e-01  5.5284884151305524e-01  2.9160781634187490e+01  5.4232052555354135e+00  3.0059881536682163e+00  7.4967328972103058e+00  2.7095449121538223e+01  1.1298500000000001e+01  2.1492207065196958e+01  1.9303191134596638e+00  8.1704915515412391e-01  1.6362736837686158e+00  7.2423500000000004e+01  8.5757634147960593e-01  3.1049711284097810e+00  8.5733876314590535e-02  6.7168674258796770e+00  2.0329849999999999e+02  2.6846374873027383e+01  3.6608719854956733e+00  3.9008359672896065e+00  1.9484393780303200e+00  7.7189399533958758e-01  2.2276035685580901e+01  8.4235000000000007e+00  1.1931698010267873e+00  1.0130939445856926e+01  4.5923500000000004e+01  1.2854948272306128e+01  1.2192350000000000e+02  1.3129976582501390e+00  1.4432891340908309e+01  1.9729849999999999e+02  3.8465077502716575e+01  1.6692349999999999e+02  1.0399459854247329e+01  5.0709527580830183e-01  1.9550028481133330e+00  6.7985000000000007e+00  2.6805969511845457e-01  7.5509338027283111e+00  1.8245133847352154e+01  1.6823673772058869e+00  2.2716004802143974e+00  2.4129849999999999e+02  3.4160372861657748e+01  4.2791981485179431e-02  1.9871873323142841e-02  5.8779068947201818e-01  5.8239073796862295e-01  7.4077862771730507e-01  3.6395622156452687e-02  2.2542349999999999e+02  4.9796134021173142e+00  2.7088563964803997e-02  6.3798500000000004e+01  6.7923500000000004e+01  5.0164672931324548e+00  2.9807486103350744e-01  2.8108410670124201e+01  6.7449794939540758e-02  1.3804978590874326e-01  1.5042349999999999e+02  8.7985000000000007e+00  1.1120400715978992e+01  2.3353252518965371e+00  5.7923500000000004e+01  4.4795164339106414e-01  8.8917987685457722e-01  4.2978573069585311e+00  5.8904458283589719e+01  1.0500554057515158e+01  7.4832774449944206e-01  1.9879849999999999e+02  3.0104737115163172e+00  7.1064795893257058e+00  5.6885049255795817e-01  1.2338686432805186e+00  1.9048339907362202e+00  6.3967556005433952e+00  2.0442349999999999e+02  5.3445732914498521e+01  1.4551897503200587e+01  5.3867811552673501e+01  1.8562318111095792e+01  6.2250655815084928e+00  4.1542062715107440e+00  1.3542349999999999e+02  1.0292350000000000e+02  2.0629849999999999e+02  1.0992350000000000e+02  3.6798500000000004e+01  3.7985000000000011e+00  3.9235000000000011e+00  5.4235000000000007e+00  2.0079849999999999e+02  2.6298500000000001e+01  2.1379849999999999e+02  1.8392349999999999e+02  4.2985000000000007e+00  1.9579849999999999e+02  2.2879849999999999e+02  9.0423500000000004e+01  9.9423500000000004e+01  1.7798500000000001e+01  1.6142349999999999e+02  1.9629849999999999e+02  8.2923500000000004e+01  1.8923500000000001e+01  2.6423500000000001e+01  3.5423500000000004e+01  7.1423500000000004e+01  2.1829849999999999e+02  5.2985000000000007e+00  3.1298500000000004e+01  7.6923500000000004e+01  1.2923500000000001e+01  1.4298500000000001e+01  4.2798500000000004e+01  5.6298500000000004e+01  6.9423500000000004e+01  1.8492349999999999e+02  2.1798500000000001e+01  8.6423500000000004e+01  2.2329849999999999e+02  2.4829849999999996e+02  1.2932518298192093e+00  1.8170493494646861e-01  4.5341219903160246e+00  3.8220297159227379e-01  3.5720306087439369e+00  2.8663996109105900e+00  5.4956686151870848e-01  8.0986346189434855e+01  8.5672398506224756e-01  2.7782497770400885e+00  1.4931574164133807e+00  1.8167280211214041e+00  5.6464280827309310e-01  1.9772541933592609e+00  2.7372431855298949e+01  6.0923441707465631e-01  9.7330743757580844e+00  5.0136692384819899e+00  2.1868049879785264e+01  8.4319441318890007e+00  1.2695857283677814e+00  2.6187145879774032e-01  1.1139554385356742e+00  3.0744954888124782e+00  5.3401913588029714e+01  3.2890288483842556e-01  2.9493866296765137e-01  3.8839668191715795e+00  8.0866935483236591e-01  1.2434838547363940e+00  4.5184954974850361e-01  2.3042847398507060e+00  4.8986766001615393e+01  1.4443634939453087e+00  9.8710483695336428e+00  5.6874460326363652e-01  1.0137841327004686e+00  6.9503265891164958e+01  3.5777892844438419e+01  1.7251929604282685e+00  2.7697422699876856e-01  8.9395241091549824e-02  9.2065321069052741e-01  6.6059990056891338e-02  2.2619594386658910e+01  2.2654393729595277e+01  6.8346891356967504e+01  9.9568181531012261e+00  7.1257501088664172e+00  1.7728586506392801e+00  7.8527270125114743e+00  1.5572199170010472e+00  1.3807010660928826e+01  5.8836645038806568e+00  1.5492097255392911e+00  8.6878563437317546e-01  5.8324804598926872e-01  1.3391692122196149e+01  6.2044447712272550e+01  3.6154799692948574e+00  1.8896306185355212e+00  1.6626217169973305e+00  1.9963636784461428e+01  6.7979402172021375e-01  8.7553080045452106e-02  1.8129289881541923e+00  9.0089468048120551e+00  8.3325665344558306e+00  4.8256960750737948e-01  1.8030778307245967e+00  6.5001531993738570e+00  4.5275345893235247e+01  1.2872695460816530e+01  6.8988300126195918e+00  1.6786721354646048e+01  2.3997025870582476e+01  1.5925083418028747e+00  2.8500257634741932e-01  5.5015843835598555e-01  3.7631451331270438e-01  2.6261288800384552e+01  1.6972556770624406e-01  2.4880927327470487e-01  2.2070695180855889e+01  6.5497578226498788e+01  5.0317831994266271e+00  1.3388190796607191e+00  1.2695422637026332e+00  8.9034913293036866e-01  2.5314364032948351e+00  1.9537236744379924e+00  2.0722860177053196e-01  5.3609237701274393e-01  7.2288602022554260e-01  2.1746540200284912e+00  2.5528792049948801e-01  5.2092208329849288e-02  2.7075060496181447e+00  1.0342330169187902e-01  2.2407382173499468e-01  1.5459688013501685e+00  9.4380823222111943e-01  2.2042575355039005e+00  1.3403471911519235e+01  9.2216908499115373e+00  1.9651395819028290e+00  1.0888879415647305e+02  1.7272433958240477e+01  2.2482996047288914e+01  4.5314171535210462e-01  3.4598327894015839e+01  2.7689066831679989e+00  3.6319549413164189e+00  1.1805290060652347e+00  3.8598090572341821e+00  1.2146188329970780e+00  9.5646186165871487e+00  2.3330854548356118e+01  2.5362291470030590e-01  1.2047000765557920e+00  1.6958070026867065e+00  1.3290593063600728e-01  1.2491258751127323e+00  7.7710974681082448e+01  5.1522741276208164e+00  5.9432292181187019e-01  8.3573225210422649e+01  9.3950163527602726e+01  2.2736526718686253e-02  3.4589881145084167e+00  3.6871484453567276e+00  2.4075360844301333e+01  1.0801349493396261e+01  1.0494384548142059e+00  2.3915475995670968e-01  4.5261463813843594e-01  3.5141599837185368e+01  4.4531571830897754e+00  5.4467202626208099e+01  6.0574107855157966e-01  3.6077157044479413e-01  5.3163605796318747e-01  1.7910973726475724e+01  2.1583581797708597e+01  7.1033818041762274e+01  6.2494648939399626e+00  4.6071236453478861e+01  9.1383863828675711e+00  9.1749137992167249e+00  3.4463434847307362e+00  3.7751119801632886e+00  5.2291662182229572e+00  1.1553420512119730e+00  1.7602889428142759e-01  3.1731588544584417e+00  5.6986943540363043e+01  1.2279927017319126e+01  1.2354584250629317e+00  1.7864436709638507e+00  8.2375481871224530e+00  1.4438171602203960e+01  3.9019801760540607e-01  3.0135382282104337e+00  1.2093193228427868e+01  8.5068778653250382e-02  3.5038444190877299e-01  3.8398135379725534e-01  2.3843342242349717e-02  5.0833150625145285e