<?xml version="1.0"?>
<VTKFile type="UnstructuredGrid"  version="0.1"  >
<UnstructuredGrid>
<Piece  NumberOfPoints="3311" NumberOfCells="6266">
<Points>
<DataArray  type="Float64"  NumberOfComponents="3"  format="ascii">0 8 0  0 0 0  8 0 0  8 8 0  5.996053456856544 4.125581039058627 0  6 4 0  5.996053456856544 3.874418960941374 0  5.984229402628955 3.749333532871391 0  5.964574501457378 3.625237370828551 0  5.937166322257262 3.502620225670289 0  5.902113032590307 3.381966011250105 0  5.859552971776503 3.263750894630644 0  5.809654104932038 3.148441416869854 0  5.752613360087726 3.036492651796568 0  5.68865585100403 2.928346410042006 0  5.618033988749895 2.824429495415053 0  5.541026485551579 2.725152020502621 0  5.457937254842823 2.630905788142622 0  5.369094211857376 2.542062745157176 0  5.274847979497379 2.458973514448421 0  5.175570504584946 2.381966011250105 0  5.071653589957993 2.31134414899597 0  4.963507348203431 2.247386639912273 0  4.851558583130144 2.19034589506796 0  4.736249105369355 2.140447028223497 0  4.618033988749895 2.097886967409693 0  4.49737977432971 2.062833677742738 0  4.374762629171449 2.035425498542622 0  4.250666467128609 2.015770597371044 0  4.125581039058626 2.003946543143457 0  4 2 0  3.874418960941374 2.003946543143457 0  3.749333532871391 2.015770597371044 0  3.625237370828551 2.035425498542622 0  3.502620225670291 2.062833677742738 0  3.381966011250105 2.097886967409693 0  3.263750894630644 2.140447028223497 0  3.148441416869856 2.19034589506796 0  3.03649265179657 2.247386639912273 0  2.928346410042007 2.311344148995969 0  2.824429495415053 2.381966011250105 0  2.725152020502621 2.458973514448421 0  2.630905788142623 2.542062745157177 0  2.542062745157176 2.630905788142623 0  2.458973514448421 2.725152020502621 0  2.381966011250104 2.824429495415055 0  2.311344148995969 2.928346410042007 0  2.247386639912273 3.036492651796569 0  2.190345895067961 3.148441416869856 0  2.140447028223497 3.263750894630644 0  2.097886967409693 3.381966011250106 0  2.062833677742738 3.502620225670291 0  2.035425498542623 3.62523737082855 0  2.015770597371044 3.749333532871391 0  2.003946543143457 3.874418960941374 0  2 4 0  2.003946543143457 4.125581039058627 0  2.015770597371044 4.250666467128609 0  2.035425498542622 4.374762629171449 0  2.062833677742738 4.49737977432971 0  2.097886967409693 4.618033988749895 0  2.140447028223497 4.736249105369357 0  2.190345895067961 4.851558583130146 0  2.247386639912273 4.96350734820343 0  2.31134414899597 5.071653589957994 0  2.381966011250105 5.175570504584947 0  2.458973514448422 5.274847979497379 0  2.542062745157177 5.369094211857377 0  2.630905788142623 5.457937254842823 0  2.725152020502621 5.541026485551578 0  2.824429495415054 5.618033988749895 0  2.928346410042006 5.68865585100403 0  3.036492651796569 5.752613360087727 0  3.148441416869855 5.809654104932039 0  3.263750894630645 5.859552971776503 0  3.381966011250106 5.902113032590307 0  3.50262022567029 5.937166322257262 0  3.625237370828551 5.964574501457378 0  3.749333532871391 5.984229402628956 0  3.874418960941373 5.996053456856544 0  4 6 0  4.125581039058627 5.996053456856544 0  4.250666467128609 5.984229402628955 0  4.37476262917145 5.964574501457378 0  4.497379774329709 5.937166322257262 0  4.618033988749895 5.902113032590307 0  4.736249105369356 5.859552971776503 0  4.851558583130146 5.809654104932039 0  4.96350734820343 5.752613360087727 0  5.071653589957993 5.688655851004031 0  5.175570504584947 5.618033988749895 0  5.274847979497379 5.541026485551578 0  5.369094211857377 5.457937254842824 0  5.457937254842824 5.369094211857377 0  5.541026485551578 5.274847979497379 0  5.618033988749895 5.175570504584947 0  5.688655851004031 5.071653589957993 0  5.752613360087727 4.96350734820343 0  5.809654104932039 4.851558583130146 0  5.859552971776503 4.736249105369356 0  5.902113032590307 4.618033988749895 0  5.937166322257262 4.497379774329709 0  5.964574501457378 4.37476262917145 0  5.984229402628956 4.250666467128609 0  4 0 0  4 8 0  0 4 0  8 4 0  0 2 0  2 8 0  6 0 0  2 0 0  6 8 0  0 6 0  8 6 0  8 2 0  6.521298246749463 6.521298246749463 0  1 0 0  0 1 0  1.483805613147755 1.483805613147755 0  1.478701753250537 6.521298246749463 0  6.521298246749463 1.478701753250537 0  3 8 0  0 3 0  8 3 0  0 5 0  5 8 0  5 0 0  3 0 0  8 5 0  6.873734575860524 2.615431780543919 0  1.116982513655503 5.247593072616309 0  6.883017486344498 5.247593072616301 0  5.247593072616301 6.883017486344497 0  1.126098722170601 2.617891572298291 0  2.615431780543918 6.873734575860524 0  2.752406927383699 1.116982513655503 0  5.384568219456082 1.126265424139476 0  8 1 0  1 8 0  0 7 0  7 0 0  8 7 0  7 8 0  7.020499434641315 3.646406833984896 0  0.9797566053390774 3.648465816465237 0  3.715288427949091 7.011933824133993 0  4.353593166015106 0.9795005653586846 0  0.6967635209176272 4.5 0  3.5 0.6967635209176218 0  7.275042869145442 4.47475797999556 0  4.511587833362441 7.305805066533029 0  6.221909358080951 5.748059996166043 0  2.210760254282484 6.169547847869656 0  5.847454471986239 1.9044742386454 0  2.256260253799227 1.778178383200799 0  1.980629682828464 0.8249524138953971 0  0.6577483392967642 1.5 0  6.111193299431891 0.7920397023581334 0  0.6549706477735622 6.5 0  6.5 7.345029352226438 0  1.5 7.345029352226438 0  7.175403142852891 6.018842476908514 0  7.207960297641867 1.88880670056811 0  1.20233119856484 0.7548054172032042 0  7.138369340064689 0.8616306599353107 0  7.199038705435568 6.950962679584875 0  0.7268524757237351 7.273147524276265 0  5.787512723837678 6.360832417372146 0  1.584163534320421 5.803133310871846 0  0 0.5 0  0.5 0 0  1.813082410952285 2.362102895128433 0  4.585782825748341 6.620641716166908 0  3.414352878528616 1.379965389869018 0  1.37996538986902 4.585647121471382 0  5.5 8 0  5.795705687727962 7.325709583536691 0  0 5.5 0  0.6742904164633071 5.795705687727965 0  6.608410641840795 4.622450854667636 0  8 7.5 0  2.5 0 0  8 5.5 0  0.6430017150697597 2.16323374265656 0  8 2.5 0  5.5 0 0  2.5 8 0  2.162575541096604 7.357557400929156 0  6.209066202375347 2.498720159134196 0  8 6.5 0  3.213766170612044 6.557595245863999 0  4.810864017456047 1.461836067072289 0  6.474921798096663 3.108973325505615 0  1.461596867478842 3.191209948990856 0  0.6057536094346159 0.6057536094346163 0  3.5 8 0  3.116533476945463 7.331420182036469 0  7.5 0 0  7.50138895891471 1.352981564798016 0  6.5 0 0  4.925848415861192 0.6541083366372827 0  6.636309068723879 2.066043736464307 0  7.345891663362717 3.074151584138809 0  2.034062939515405 6.739458287989336 0  0.6538386597513111 3.07650783347036 0  1.306229817586613 2.051251581737755 0  1.711425920865481 5.22190430062486 0  5.172422863235413 6.301009428280244 0  2.75 0.5305166887675732 0  7.469483311232427 5.25 0  0.5722092524055858 5.06190966273399 0  5.072435773461397 7.430123991012138 0  6.319527671469182 5.122233284663893 0  2.835488340834966 1.696071607164519 0  5.920435248419656 1.334295501631503 0  4.5 0 0  8 3.5 0  7.432272671858859 2.512886319125838 0  5.571830688303236 0.5764100372080221 0  0 3.5 0  5.289311353655532 1.776472779228421 0  8 0.5 0  7.5 8 0  1.5 0 0  7.25 7.504032729381043 0  6.06696156120921 6.840932928848806 0  1.126750463624113 6.102788617506953 0  4.079942410528958 1.456191250380107 0  6.543808749619893 3.920057589471043 0  1.456853858348016 3.920078412765323 0  2.719154100210118 6.345760317541158 0  6.75 0.4820732229428856 0  1.147555431445879 6.942001202471608 0  0 2.5 0  4.033254072103534 6.555375438181171 0  7.459092130175394 3.96491680499676 0  4.023910705003057 0.5449410641392927 0  0.46324372358657 3.75 0  4.000538644612607 7.464791837989975 0  0 7.5 0  0.5 8 0  6.641367242777847 0.9816996559636945 0  2.060098699240311 5.602794388158723 0  8 1.5 0  1.5 8 0  6.5 8 0  0 6.5 0  0 1.5 0  4.5 8 0  8 4.5 0  3.5 0 0  0 4.5 0  5.71241378857682 5.847235604203799 0  1.980356857777504 1.341494340873432 0  6.73841195435907 5.743461321139284 0  7.001901661066728 1.342234074252575 0  2.271256172523833 0.4319561292819105 0  7.568195995774798 5.728421007950713 0  1.079620717833623 4.213724869256849 0  3.785914285080838 1.07957548172746 0  1.75 0.4068334879001349 0  7.593198924126513 6.25 0  2.644210543189512 7.51442503308679 0  1.759107121904632 1.881466257766474 0  7.598221819062164 0.75 0  7.25 0.4017781809378356 0  7.016697196788522 6.489226510093869 0  0.8135924992537802 1.042303878660207 0  7.590765621254587 6.709933711568556 0  6.972320805074426 4.114496419277549 0  0.6689706016379435 2.619626936075973 0  4.490317171939625 0.4719794785870491 0  7.586130070956817 7.194177964358491 0  1.564887898956812 2.745941764426699 0  7.45216884474369 3.51322113522411 0  7.58575169794429 4.808833363985082 0  3.538045596929494 7.533919544016318 0  4.268777385438645 6.932912710296469 0  6.25 0.3687278481717181 0  6.915054373976157 3.207810438216838 0  7.002360785621788 4.82228450274451 0  0.3972487693887257 4.181902501602563 0  0.9482937176147312 4.850514130935556 0  3.25 0.3483817604588109 0  3.078724571458289 0.822405414577691 0  1.086245288390012 5.675597706514477 0  1.074212327675575 1.667136181084258 0  2.267204536760128 2.246625033644231 0  4.821181984497242 6.992731518467086 0  2.439850702774412 0.8250274309749102 0  7.174972522369596 5.560160665184872 0  5.904966268715267 5.477643303883068 0  6.207512920818998 6.198213208971735 0  2.504889937937569 1.447997919101883 0  0.3997445887406886 1.156770199073539 0  0.3288741696483821 1.75 0  1.637615877582278 1.083042277773219 0  2.524803464880197 5.901811913432696 0  5.794604146187496 2.343782137192302 0  6.836411413561036 7.606548808898578 0  1.826315648259891 7.614255845340183 0  1.090927571027496 7.551079899216545 0  6.140889361672077 7.589220379873516 0  1.066148535748459 6.537245249458406 0  0.410779620126483 6.140889361672079 0  0.4489201007834544 6.909072428972504 0  6.470724483843425 6.932131515022222 0  1.638960019540123 6.929295531772199 0  5.660873205465542 6.931985632892141 0  3.623652679878191 6.609113767281198 0  7.62
[...]
<PointData  Scalars="f_24"> 
<DataArray  type="Float64"  Name="f_24"  format="ascii">1.9468000000000001e+02  2.6800000000000006e+00  6.6680000000000007e+01  2.5868000000000001e+02  8.9693913787001492e+01  8.6680000000000007e+01  8.3666023912187399e+01  8.0663507365430505e+01  7.7683186967991247e+01  7.4734989273969603e+01  7.1828020553225187e+01  6.8970570735661852e+01  6.6170130885338054e+01  6.3433423343903456e+01  6.0766443482780090e+01  5.8174511822460651e+01  5.5662335118132624e+01  5.3234074876048261e+01  5.0893421656748480e+01  4.8643673441084040e+01  4.6487816284181882e+01  4.4428605461827516e+01  4.2468645323437990e+01  4.0610466105666958e+01  3.8856596030004411e+01  3.7209627105331577e+01  3.5672273180638847e+01  3.4247418941947537e+01  3.2938158718448456e+01  3.1747824153169891e+01  3.0679999999999996e+01  2.9738527528231863e+01  2.8927495244390713e+01  2.8251216875204349e+01  2.7714196791363491e+01  2.7321083285333259e+01  2.7076610344094732e+01  2.6985528775584658e+01  2.7052527752183096e+01  2.7282148022499619e+01  2.7678688210822742e+01  2.8246105769125975e+01  2.8987914267030479e+01  2.9907078798563113e+01  3.1005911349307368e+01  3.2285968002462347e+01  3.3747949866715629e+01  3.5391609582499854e+01  3.7215665206425456e+01  3.9217723187237794e+01  4.1394212031780285e+01  4.3740328117853423e+01  4.6249994944673183e+01  4.8915836923367223e+01  5.1729168602482709e+01  5.4680000000000000e+01  5.7757058477296795e+01  6.0947827345540453e+01  6.4238601144902745e+01  6.7614557285679496e+01  7.1059843491775240e+01  7.4557680244966903e+01  7.8090477196672438e+01  8.1639962296264528e+01  8.5187322184699354e+01  8.8713352222539783e+01  9.2198614365181584e+01  9.5623600967717238e+01  9.8968902499485992e+01  1.0221537707560175e+02  1.0534431967081773e+02  1.0833762887069305e+02  1.1117796903639399e+02  1.1384892581232253e+02  1.1633515298936688e+02  1.1862250884966802e+02  1.2069818025971207e+02  1.2255079294515848e+02  1.2417050657058063e+02  1.2554909345734596e+02  1.2668000000000002e+02  1.2755839008228399e+02  1.2818117004463832e+02  1.2854699501190169e+02  1.2865625664898741e+02  1.2851105266966633e+02  1.2811513867527657e+02  1.2747386314240488e+02  1.2659408660764888e+02  1.2548408631002101e+02  1.2415344774417687e+02  1.2261294474755984e+02  1.2087440988920405e+02  1.1895059704520241e+02  1.1685503813400683e+02  1.1460189604253810e+02  1.1220581580076379e+02  1.0968177605766816e+02  1.0704494287558506e+02  1.0431052779339092e+02  1.0149365201322016e+02  9.8609218441795676e+01  9.5671793168220816e+01  9.2695497787603728e+01  1.8680000000000000e+01  2.1068000000000001e+02  5.0680000000000000e+01  1.1468000000000001e+02  1.4680000000000000e+01  1.9868000000000001e+02  3.8680000000000000e+01  6.6800000000000006e+00  2.3068000000000001e+02  1.1068000000000001e+02  1.7468000000000001e+02  7.8680000000000007e+01  2.5807577245206348e-01  3.6800000000000006e+00  5.6800000000000006e+00  1.5972848407678975e-02  1.9746611971287181e-01  7.7296091125209951e-02  2.0368000000000001e+02  2.9680000000000000e+01  9.3680000000000007e+01  7.7680000000000007e+01  2.1968000000000001e+02  2.7680000000000000e+01  1.1680000000000000e+01  1.4168000000000001e+02  4.0317344694033097e-01  4.7689949012179056e-01  7.6514159738909293e-01  1.0515350311574276e+00  1.4656854772752656e-01  8.5938533744974455e-01  1.0173275274703723e-01  1.8292455983032307e-01  6.9680000000000007e+01  1.9568000000000001e+02  1.4968000000000001e+02  5.1680000000000000e+01  2.1368000000000001e+02  2.4368000000000001e+02  1.0557894031338542e+00  5.1120260514630189e-01  1.8863717354143819e+00  2.8084883127413451e-01  1.9246251772506595e+00  4.5554079045644491e-01  3.2783678354815531e+00  6.5260133851113453e+00  1.4482008885184174e+00  1.4152585619781173e+00  7.3551784353714056e-01  3.6512406268646930e-01  1.0279566346793750e-01  3.5021311720843018e-01  7.1537452403818036e-01  4.5098567769243223e+00  8.6600315229884117e+00  7.0252576923602259e+00  2.6167204199762026e+00  1.3970834476264924e+00  1.0308863870858231e-01  1.4498816507590575e+00  4.5568566532127495e+00  8.2743450901926572e+00  8.2158445466790520e-01  4.5360557970148024e-01  3.4300000000000006e+00  2.9300000000000006e+00  6.6930573844947550e-01  3.5560491650047950e+00  7.6505554081768690e-01  1.8318188358444729e+00  2.2493000000000001e+02  7.3408388112904470e+00  9.3430000000000007e+01  3.3582186103679814e+00  2.8038855780714127e+00  2.3543000000000001e+02  8.9299999999999997e+00  1.5743000000000001e+02  6.4247227544561336e-01  8.5430000000000007e+01  3.2930000000000000e+01  2.0093000000000001e+02  7.5630818876888579e+00  1.7184160397814969e+00  1.9343000000000001e+02  3.5290976161238374e+00  1.1534668486300330e+00  2.5032551887762304e+00  1.2888352733702468e+00  3.0630556185321994e-01  2.0693000000000001e+02  6.9298996257623457e+00  5.8930000000000000e+01  5.7117149269214291e+00  4.4930000000000000e+01  9.5369846418094384e-01  1.4467647706086131e-01  3.4174898499736650e+00  3.9635514443890713e-01  1.1162038677638764e+00  4.9477687853227724e-02  3.3578397874016850e+00  5.7202051094916975e+00  6.8333020259876420e-01  9.7779215742467418e+00  4.3113093279891839e+00  1.2321945086629293e+01  4.8250346330670872e+00  1.2582030358145753e+00  9.3780758545937190e-02  2.2930000000000000e+01  1.0343000000000001e+02  4.7453990141088820e+00  1.8035558246697376e+00  3.9430000000000000e+01  2.0827957129629073e+00  6.7430000000000007e+01  2.5093000000000001e+02  4.9300000000000006e+00  2.2987500566552193e+01  6.6307802731881815e-01  4.0899198811120030e-01  1.7495975838776170e+00  4.6877372134020305e+00  3.0546110613664075e+00  3.1760711037291509e+00  4.2330937834253168e+00  1.3028195856869933e+00  2.1430000000000000e+01  6.7023252322670102e+00  7.1042437734071653e+00  1.2007327501173524e+00  4.3980368272860932e+00  1.3902753322932963e+01  1.7143000000000001e+02  1.9493000000000001e+02  3.7878366002270603e-01  5.9273007829317210e+00  7.3430000000000007e+01  1.9693000000000001e+02  2.3693000000000001e+02  1.2943000000000001e+02  9.4299999999999997e+00  2.1493000000000001e+02  1.2743000000000002e+02  1.4930000000000000e+01  6.3429999999999993e+01  7.5427961292458869e+00  3.1868539382766126e-02  4.3447139410686958e-01  4.9672523506269844e-01  8.7571931230934574e-01  1.8253766631536482e+01  6.7165603526166373e-01  2.8587314418782084e-01  7.4641921036246250e-01  2.3548728037886448e+01  1.7333936973866738e+01  1.0063939791207926e-01  9.7095828237217514e+00  8.2512907184170441e+00  1.3897320239433713e+00  1.1949229320840443e-01  2.5279530277310823e+01  1.1496909977303957e+00  8.0596417715299795e-01  2.1301653215424627e+00  2.9510274391356941e+01  7.2898156541568282e-01  6.2968947184952038e+00  1.6732487207327740e+01  1.9485980374739931e+01  1.7878507200298712e+00  6.0850378535383793e+00  7.3609801905242556e-01  1.1318093117445263e+00  7.3206093100772902e+00  7.3826293360457607e-01  2.2653008392463634e+00  2.2039553481798474e-01  4.6520911759909317e-01  5.4413794247689488e-02  2.5195438731973083e+00  1.7133463486703833e+00  1.3943778444441646e-01  2.4623016570644141e+00  1.3144293695212985e+01  3.5627895059899639e-01  1.8132669733435794e-01  9.0331876883303353e-01  2.2235626128825015e+00  2.6942189476525349e-02  1.2218257495541071e+01  5.1523626547710917e+00  3.2775206665729364e+01  2.8164710349319716e+01  2.0554153098945950e+01  2.8857171325662303e+01  6.9018167399153052e-01  1.4547628889138014e+01  1.5418797103991352e+01  1.1308588457864359e+00  8.7487153833739406e-01  1.0868766396686149e+00  4.3191456474195444e+00  1.1621991634953327e+01  2.3599665150682927e-01  3.3985889027245203e-01  7.9134730553999049e+00  2.3992801046352802e-01  5.8923285008263395e+00  7.8800884300786767e-01  3.8316912458039887e+01  3.6898818608542777e-01  4.1378124267551014e-01  2.7818996552588415e-02  1.3795146311740281e-01  4.8359861392285604e+00  1.3771473989867969e+01  2.2697186389881796e-01  3.2031347846876246e-01  8.6813630959144539e-01  1.0876576267048110e-01  2.5955336302270866e+00  6.2898599585204129e-01  1.5636153159082224e+00  7.2717731265040868e+00  1.0600878281472135e+00  2.8331805475758004e-01  5.5475693322294024e+00  4.0960614762231922e+00  1.2774231428197581e+01  3.8040059071518229e+01  3.2936487641982779e+01  1.9314819922446784e+01  6.0452305739340613e+00  1.6874275630605901e+01  3.8937744604618580e+00  1.0118494243071023e+00  2.0341123790711226e+01  5.5276281008521096e+01  9.2683498116726992e-01  1.5164537079831293e+01  1.6854612695292523e-01  1.0892112083801685e+01  5.1151960449648307e+01  5.6341526715062237e+01  3.5857581306670035e+01  5.4809289985918191e+01  9.1002540487864825e-01  4.6172869646202219e+00  1.5741577896852561e+01  5.4097021537206533e+00  1.7572993911474635e+00  1.3343264229566673e+01  1.1674150006712978e+00  7.7952667730583443e+00  5.5967477711175584e-01  1.0716007008934176e+00  1.7259364187671120e-01  4.3259139545071603e+00  3.8518484749337077e+01  8.8650535244356565e-01  1.0161669507386326e+00  1.7260140753905329e+01  1.5504799408022896e+01  3.6322616175132358e+00  3.3824026344843250e+00  7.5421309254057514e+00  8.2766497910723782e+00  1.2692679141847067e+00  9.3335777104487008e+00  2.2843921672827561e+00  4.9941425773528678e+00  2.7870871924547046e+01  2.1023054090598323e-01  2.1209212072666697e+00  5.6493996649463284e+01  1.4465030062030968e+00  9.0795694439221142e-01  1.3830234002719141e+01  4.7915481589297464e+00  4.2726109264901364e+00  1.7664821931443111e+00  2.8729484189980705e+00  5.1869211912338917e+00  1.5394567938757016e+00  5.0744101051294080e-02  2.0923469083881122e-01  2.2152761302787614e+01  2.7334270287278164e+00  1.3323450484525262e-01  1.8463014709254942e+01  1.2996634163703982e+00  1.1037860259392831e+00  5.5266102157510915e+00  5.7335378551041920e+00  5.3007751455827776e+00  1.3181345372176354e+00  1.8317652010021312e+00  1.1799497075968415e+00  3.4260712591101000e-01  8.3671393657267157e-01  1.2955911353260902e-01  3.2095053098655707e-01  5.3808394352595790e-01  3.0208389983104317e-01  8.6830313559926298e-01  2.8567335892339185e-01  4.7414190710722531e-01  2.1577585116202872e+01  3.1376553814672820e-01  4.9755395673850872e-01  5.9055323259903125e-01  8.2574353054637206e-01  2.7983749022502657e-01  2.0874250000000001e+02  4.3664315205225918e+01  3.5934911564544400e+01  2.4166163443164454e+01  1.4637920620783111e+00  6.3113489114860799e-01  3.9475597656970663e+01  1.0153370138030276e+01  3.3738514790970004e+00  7.7614451521161962e-02  2.8703975203514784e+00  1.3538665763725577e+01  3.7293814292240359e+00  4.0645980638085568e+00  9.2490124115401154e-02  5.0720734220253827e-01  7.1457934847082161e+00  2.1747251883488264e+01  2.9551148924489734e-01  2.1056276894516316e+01  1.4686982644192470e+01  4.6527268503017556e+00  1.7815642712037121e+00  4.6437774370485183e+00  1.7072611291116389e+00  1.6271979302667474e+00  1.3619023479414146e+01  1.3936750000000001e+02  1.6769064644029767e+00  1.2588633450138131e-01  1.4504865681200485e+01  3.6187596391430782e-01  2.6445429998100001e-01  1.4736933648180359e+00  2.8469324542275234e+00  1.7742071888061919e+00  1.3681642005026992e-01  3.1925085899811745e-02  4.3099186637039487e+01  1.8983336414575373e+01  2.0011282231406646e+01  5.8173201978511226e+00  2.4724891128450985e+00  3.3324332087337602e+01  3.3224914359955385e+01  1.9897915455567226e+00  1.6980246410500277e-01  2.2961090945483003e+00  5.4017180886557856e+00  3.9044255737744604e-01  3.3351846900030385e-01  6.7436274554541029e+00  1.8772337067320205e+01  4.8690060059072926e-01  3.4077933841830943e-01  1.9865125070277223e+00  8.8960216478479959e-02  9.4615873358502292e+00  3.9356724954413397e-01  3.3609525886116667e+00  2.0997256829777561e-01  1.8987321592731493e-01  2.9253011505703532e+00  5.3460763963125281e+01  9.0917171020880048e+00  5.9404119825510515e-01  7.9927632208189889e+00  1.3271255519932396e-01  9.4343661850628135e-01  2.8772283425650009e+00  1.9966156564715988e+01  2.7368901303873359e+00  2.4686750000000001e+02  1.1986750000000001e+02  2.3374250000000001e+02  6.6078798671839212e-01  4.6124434961021779e+00  6.0672083144462718e-01  2.9967921488343979e-01  2.5474250000000004e+02  1.3139312849866725e+01  4.4070680747606534e+00  3.7688128997208559e-01  1.9613504551111223e+00  3.8275448762463565e-01  2.0079373827895766e+00  1.0166178843521468e+01  7.1603326588949713e+01  6.2754164705781101e+01  2.6257447673360551e-01  1.8521089717100470e+01  5.9041241592568277e+00  7.0762983756584648e+00  1.1661223968947354e+00  1.3233965959213061e+00  1.1234054825537715e+01  3.4298692560514517e+00  1.0878498824153530e-01  1.7788549258607009e+00  1.7881702834492388e+00  9.9189350316105207e-01  5.2707127991999259e-01  9.6829061850230591e-01  2.0864662916142820e-01  2.4846929633746170e-01  4.2497909027972118e-02  2.9582704503258562e+01  1.0139894842457684e+00  2.0514378142724285e-01  1.0612477337729821e+01  4.8242500000000000e+01  1.1389352568525338e+01  2.8975587469085351e+00  9.5075448341426805e-01  5.4355239447590842e-01  2.8897912017603421e+01  5.3759483095107985e+00  2.9769435086562241e+00  7.3793603539512249e+00  2.6857240545452338e+01  1.0242500000000000e+01  2.1367892627516294e+01  1.9115161513203331e+00  7.5219657806718765e-01  1.5551147008281427e+00  7.1367500000000007e+01  8.1710104024522057e-01  3.0861725226170793e+00  8.2091595409512955e-02  6.6832893412750778e+00  2.0224250000000001e+02  2.6617225905705425e+01  3.6046496450878820e+00  3.8354898470570475e+00  1.9128118231750881e+00  7.4322124586480931e-01  2.2092594390612678e+01  7.3675000000000006e+00  1.1651090583302670e+00  9.8720029312873994e+00  4.4867500000000000e+01  1.2586356206354250e+01  1.2086750000000001e+02  1.3030367376249179e+00  1.4365654742114852e+01  1.9624250000000001e+02  3.8233690001024861e+01  1.6586750000000001e+02  1.0337450713777551e+01  4.3892112245119719e-01  1.6871321391060656e+00  5.7425000000000006e+00  2.3609474596260080e-01  7.2990590343512762e+00  1.7987390483428285e+01  1.5698314295675242e+00  2.2521182918036504e+00  2.4024250000000001e+02  3.3884522756318518e+01  3.8170864505076278e-02  1.8195332647670721e-02  5.8258185388092909e-01  5.7785149772372846e-01  7.3618351633367274e-01  3.4844293896418861e-02  2.2436750000000001e+02  4.9136844450269574e+00  2.4280839913497262e-02  6.2742499999999993e+01  6.6867500000000007e+01  4.8946868769699385e+00  2.9464919187593314e-01  2.7823516901482385e+01  6.6012430744052455e-02  1.3526759507642958e-01  1.4936750000000001e+02  7.7424999999999997e+00  1.0825998418181063e+01  2.3138704463253754e+00  5.6867500000000000e+01  4.3736175293218638e-01  8.8158686586796442e-01  4.2589494801609478e+00  5.8597084045387234e+01  1.0445522724903237e+01  7.3709639425568529e-01  1.9774250000000001e+02  2.9017744629597999e+00  6.8536860708393448e+00  4.6953992974218101e-01  9.6268539523734642e-01  1.7803810331824688e+00  6.1985380897860711e+00  2.0336750000000001e+02  5.3181263257854908e+01  1.4480556475964693e+01  5.3583420047255288e+01  1.8471006879863328e+01  5.9350421393387913e+00  4.0122728630587101e+00  1.3436750000000001e+02  1.0186750000000001e+02  2.0524250000000001e+02  1.0886750000000001e+02  3.5742500000000000e+01  2.7425000000000006e+00  2.8675000000000006e+00  4.3675000000000006e+00  1.9974250000000001e+02  2.5242500000000000e+01  2.1274250000000001e+02  1.8286750000000001e+02  3.2425000000000006e+00  1.9474250000000001e+02  2.2774250000000001e+02  8.9367500000000007e+01  9.8367500000000007e+01  1.6742500000000000e+01  1.6036750000000001e+02  1.9524250000000001e+02  8.1867500000000007e+01  1.7867500000000000e+01  2.5367500000000000e+01  3.4367500000000000e+01  7.0367500000000007e+01  2.1724250000000001e+02  4.2425000000000006e+00  3.0242500000000000e+01  7.5867500000000007e+01  1.1867500000000000e+01  1.3242500000000000e+01  4.1742500000000000e+01  5.5242500000000000e+01  6.8367500000000007e+01  1.8386750000000001e+02  2.0742500000000000e+01  8.5367500000000007e+01  2.2224250000000001e+02  2.4724249999999998e+02  1.2681631442309786e+00  1.7892457231829431e-01  4.4936399904659821e+00  3.7048846198022556e-01  3.5536441638178955e+00  2.8502129297418493e+00  5.4675502829462352e-01  8.0617739456346996e+01  8.3899925627011462e-01  2.7562605889185581e+00  1.4807350201018765e+00  1.8022092032692101e+00  5.5677828628798998e-01  1.9684340381235890e+00  2.7102722506587472e+01  5.4552781080357471e-01  9.6683438665347747e+00  4.9822486456152317e+00  2.1618284991775724e+01  8.1491242490671212e+00  1.1960687886346675e+00  2.5024876184699818e-01  1.0825427161404368e+00  3.0581055614635084e+00  5.3140792202131230e+01  2.8837240550977961e-01  2.8983048687222740e-01  3.8441682671400259e+00  7.9479360499584750e-01  1.2203711469609744e+00  4.3511900741119031e-01  1.9259968715389000e+00  4.8720086892783080e+01  1.4333937867896924e+00  9.8279095961742744e+00  5.5391219983999329e-01  1.0042124385841014e+00  6.9130602785395070e+01  3.5506699864364634e+01  1.7124554134136782e+00  2.3562191029781607e-01  7.9448177995482025e-02  9.1453238771991807e-01  5.4711237526348912e-02  2.2211654143713169e+01  2.2303464838205166e+01  6.7983114715673381e+01  9.8766156779946144e+00  6.8069096737861967e+00  1.7014342173292083e+00  7.8093632975631584e+00  1.5432155027264587e+00  1.3527249165158347e+01  5.5679184831458794e+00  1.2064837572437739e+00  8.3844665115050176e-01  5.8050393045657334e-01  1.3323162313861319e+01  6.1729290156699484e+01  3.5690500888156529e+00  1.8175243649093329e+00  1.6194316714623105e+00  1.9613604710525063e+01  6.7079178047031252e-01  8.2886936604765191e-02  1.7501150314697840e+00  8.8418490653732711e+00  8.0244973323984521e+00  4.4810502515668310e-01  1.7824512051949590e+00  6.4569888362148653e+00  4.4964210362901781e+01  1.2803692705493340e+01  6.8473340677920618e+00  1.6471452685699621e+01  2.3890742676180306e+01  1.5504402432520727e+00  2.7687056476314476e-01  5.3370712945304188e-01  3.6233963698141092e-01  2.5865369370257721e+01  1.5635800558290591e-01  2.4435599733016672e-01  2.1739747304931250e+01  6.5171191292357676e+01  4.9787952358990744e+00  1.3203418215375078e+00  1.2554554017819122e+00  8.8024724064402093e-01  2.4602752804775112e+00  1.9431541699196537e+00  2.0583518386510008e-01  5.3164208100958255e-01  7.1653499172655055e-01  2.1285334400524873e+00  2.4190757442220223e-01  4.8764112160805374e-02  2.6653336964626413e+00  9.9464332681253917e-02  2.1630213030231374e-01  1.5206544091716845e+00  9.3846358741443647e-01  2.1488224817565174e+00  1.3117461340944319e+01  9.1329326426409629e+00  1.9507110213618033e+00  1.0843203468556176e+02  1.7022007552030569e+01  2.2170073935862664e+01  4.3719203458608097e-01  3.4316065486676344e+01  2.7122656821222084e+00  3.5660282542835278e+00  1.1688512236175812e+00  3.8176830737213310e+00  1.2013891826253478e+00  9.2627427575898569e+00  2.3210935630498795e+01  2.4546272435807390e-01  1.1970107280933655e+00  1.6832406477375677e+00  1.2468677725899706e-01  1.2365524119667679e+00  7.7292896829437879e+01  4.7944458324803012e+00  5.9102266661302194e-01  8.3171507115531185e+01  9.3536252325695742e+01  1.9400642524503190e-02  3.3883594734014397e+00  3.6367590882869592e+00  2.3755523482565007e+01  1.0713261081362976e+01  1.0268586864425793e+00  2.3243960065200223e-01  4.4017783438854979e-01  3.4797140462919032e+01  4.2917444250358496e+00  5.4053540885260311e+01  6.0173929939024828e-01  3.5696532850905049e-01  5.2410742645157493e-01  1.7830803706355432e+01  2.1484822120910820e+01  7.0709890086989347e+01  6.1955182967426046e+00  4.5653467003421433e+01  9.0501365419177713e+00  8.8471046950896248e+00  3.4290648072717969e+00  3.7565831927013011e+00  5.1866697062360148e+00  1.1341505326113495e+00  1.7265617634397784e-01  2.8110621656625985e+00  5.6620092960376581e+01  1.1934315381636521e+01  1.2167874133288095e+00  1.7620506349218568e+00  8.0991288698408912e+00  1.4102213708221504e+01  3.5721239468493737e-01  2.5960710950144108e+00  1.2004072035939718e+01  7.2390841090866923e-02  3.4685560575308111e-01  3.7938511325158775e-01  2.2105853458504274e-02  5.0081368067184275e